
                                 *****************
                                 * O   R   C   A *
                                 *****************

           --- An Ab Initio, DFT and Semiempirical electronic structure package ---

                  #######################################################
                  #                        -***-                        #
                  #  Department of molecular theory and spectroscopy    #
                  #              Directorship: Frank Neese              #
                  # Max Planck Institute for Chemical Energy Conversion #
                  #                  D-45470 Muelheim/Ruhr              #
                  #                       Germany                       #
                  #                                                     #
                  #                  All rights reserved                #
                  #                        -***-                        #
                  #######################################################


                         Program Version 4.0.1.2 - RELEASE -


 With contributions from (in alphabetic order):
   Daniel Aravena         : Magnetic Properties
   Michael Atanasov       : Ab Initio Ligand Field Theory
   Ute Becker             : Parallelization
   Martin Brehm           : Molecular dynamics
   Dmytro Bykov           : SCF Hessian
   Vijay G. Chilkuri      : MRCI spin determinant printing
   Dipayan Datta          : RHF DLPNO-CCSD density
   Achintya Kumar Dutta   : EOM-CC, STEOM-CC
   Dmitry Ganyushin       : Spin-Orbit,Spin-Spin,Magnetic field MRCI
   Yang Guo               : DLPNO-NEVPT2, CIM, IAO-localization
   Andreas Hansen         : Spin unrestricted coupled pair/coupled cluster methods
   Lee Huntington         : MR-EOM, pCC
   Robert Izsak           : Overlap fitted RIJCOSX, COSX-SCS-MP3, EOM
   Christian Kollmar      : KDIIS, OOCD, Brueckner-CCSD(T), CCSD density
   Simone Kossmann        : Meta GGA functionals, TD-DFT gradient, OOMP2, MP2 Hessian
   Martin Krupicka        : AUTO-CI
   Dagmar Lenk            : GEPOL surface
   Dimitrios Liakos       : Extrapolation schemes; parallel MDCI
   Dimitrios Manganas     : ROCIS; embedding schemes
   Dimitrios Pantazis     : SARC Basis sets
   Taras Petrenko         : DFT Hessian,TD-DFT gradient, ASA, ECA, R-Raman, ABS, FL, XAS/XES, NRVS
   Peter Pinski           : DLPNO-MP2
   Christoph Reimann      : Effective Core Potentials
   Marius Retegan         : Local ZFS, SOC
   Christoph Riplinger    : Optimizer, TS searches, QM/MM, DLPNO-CCSD(T), (RO)-DLPNO pert. Triples
   Tobias Risthaus        : Range-separated hybrids, TD-DFT gradient, RPA, STAB
   Michael Roemelt        : Restricted open shell CIS
   Masaaki Saitow         : Open-shell DLPNO
   Barbara Sandhoefer     : DKH picture change effects
   Kantharuban Sivalingam : CASSCF convergence, NEVPT2, FIC-MRCI
   Georgi Stoychev        : AutoAux
   Boris Wezisla          : Elementary symmetry handling
   Frank Wennmohs         : Technical directorship


 We gratefully acknowledge several colleagues who have allowed us to
 interface, adapt or use parts of their codes:
   Stefan Grimme, W. Hujo, H. Kruse,             : VdW corrections, initial TS optimization,
                  C. Bannwarth                     DFT functionals, gCP, sTDA/sTD-DF
   Ed Valeev                                     : LibInt (2-el integral package), F12 methods
   Garnet Chan, S. Sharma, J. Yang, R. Olivares  : DMRG
   Ulf Ekstrom                                   : XCFun DFT Library
   Mihaly Kallay                                 : mrcc  (arbitrary order and MRCC methods)
   Andreas Klamt, Michael Diedenhofen            : otool_cosmo (COSMO solvation model)
   Jiri Pittner, Ondrej Demel                    : Mk-CCSD
   Frank Weinhold                                : gennbo (NPA and NBO analysis)
   Christopher J. Cramer and Donald G. Truhlar   : smd solvation model


 Your calculation uses the libint2 library for the computation of 2-el integrals
 For citations please refer to: http://libint.valeyev.net

 This ORCA versions uses:
   CBLAS   interface :  Fast vector & matrix operations
   LAPACKE interface :  Fast linear algebra routines
   SCALAPACK package :  Parallel linear algebra routines




*****************************************
The coordinations will be read from file: inp.xyz
*****************************************


Your calculation utilizes the basis: 6-311G(d)
   H, Li - Ne  : R. Krishnan, J. S. Binkley, R. Seeger and J. A. Pople, J. Chem. Phys. 72, 650 (1980).
   Na - Ar     : A. D. McLean and G. S. Chandler J. Chem. Phys. 72, 5639, (1980).
   K  - Ca     : J.-P. Blaudeau, M. P. McGrath, L. A. Curtiss and L. Radom, J. Chem. Phys. 107, 5016 (1997).
   Ga - Kr     : L. A. Curtiss, M. P. McGrath, J.-P. Blandeau, N. E. Davis, R. C. Binning and L. Radom, J. Chem. Phys. 103, 6104 (1995).
   Pol./Diff.
   H, Li - Cl  : T. Clark, J. Chandrasekhar and P. v. R. Schleyer, J. Comp. Chem. 4, 294 (1983).
   H - Ne      : M. J. Frisch, J. A. Pople and J. S. Binkley, J. Chem. Phys. 80, 3265 (1984).

================================================================================
                                        WARNINGS
                       Please study these warnings very carefully!
================================================================================

Warning: TCutStore was < 0. Adjusted to Thresh (uncritical)

WARNING: TCut can not be >=Thresh
  ===> : TCut is set to 0.01*Thresh

WARNING: Geometry Optimization
  ===> : Switching off AutoStart
         For restart on a previous wavefunction, please use MOREAD

WARNING: Post HF methods need fully converged wavefunctions
  ===> : Setting SCFConvForced true
         You can overwrite this default with %scf ConvForced false 


INFO   : the flag for use of LIBINT has been found!

================================================================================
                                       INPUT FILE
================================================================================
NAME = run.inp
|  1> ! MP2 6-311G(d) NoFrozenCore ExtremeSCF Opt
|  2> 
|  3> %geom
|  4> MaxIter 3000
|  5> inhess unit
|  6> MaxStep 0.01
|  7> Trust 0.1
|  8> end
|  9> 
| 10> %mp2 MaxCore 5000
| 11> end
| 12> 
| 13> *xyzfile -1 1 inp.xyz
| 14> 
| 15>                          ****END OF INPUT****
================================================================================

                       *****************************
                       * Geometry Optimization Run *
                       *****************************

Geometry optimization settings:
Update method            Update   .... BFGS
Choice of coordinates    CoordSys .... Redundant Internals
Initial Hessian          InHess   .... Unit Matrix

Convergence Tolerances:
Energy Change            TolE     ....  5.0000e-06 Eh
Max. Gradient            TolMAXG  ....  3.0000e-04 Eh/bohr
RMS Gradient             TolRMSG  ....  1.0000e-04 Eh/bohr
Max. Displacement        TolMAXD  ....  4.0000e-03 bohr
RMS Displacement         TolRMSD  ....  2.0000e-03 bohr

------------------------------------------------------------------------------
                        ORCA OPTIMIZATION COORDINATE SETUP
------------------------------------------------------------------------------

The optimization will be done in new redundant internal coordinates
Making redundant internal coordinates   ...  (new redundants) done
Evaluating the initial hessian          ... done
Evaluating the coordinates              ...  done
Calculating the B-matrix                .... done
Calculating the G-matrix                .... done
Diagonalizing the G-matrix              .... done
The first mode is                       ....   34
The number of degrees of freedom        ....   36

    -----------------------------------------------------------------
                    Redundant Internal Coordinates


    -----------------------------------------------------------------
         Definition                    Initial Value    Approx d2E/dq
    -----------------------------------------------------------------
      1. B(C   1,C   0)                  1.5158         0.500000   
      2. B(Cl  2,C   0)                  1.8282         0.500000   
      3. B(H   4,Cl  3)                  2.2604         0.500000   
      4. B(H   4,C   1)                  1.0976         0.500000   
      5. B(H   5,Cl  3)                  2.8812         0.500000   
      6. B(H   5,C   0)                  1.0891         0.500000   
      7. B(H   6,C   1)                  1.0974         0.500000   
      8. B(C   7,C   0)                  1.5083         0.500000   
      9. B(H   8,C   7)                  1.0917         0.500000   
     10. B(H   9,C   7)                  1.0938         0.500000   
     11. B(H  10,C   7)                  1.0924         0.500000   
     12. B(N  11,C   1)                  1.4598         0.500000   
     13. B(H  12,N  11)                  1.0151         0.500000   
     14. B(H  13,N  11)                  1.0158         0.500000   
     15. A(C   1,C   0,H   5)          108.3624         0.200000   
     16. A(H   5,C   0,C   7)          110.5175         0.200000   
     17. A(C   1,C   0,Cl  2)          108.8422         0.200000   
     18. A(Cl  2,C   0,C   7)          109.7496         0.200000   
     19. A(C   1,C   0,C   7)          113.7694         0.200000   
     20. A(Cl  2,C   0,H   5)          105.2326         0.200000   
     21. A(H   4,C   1,N  11)          107.6295         0.200000   
     22. A(H   4,C   1,H   6)          111.7501         0.200000   
     23. A(H   6,C   1,N  11)          110.0502         0.200000   
     24. A(C   0,C   1,H   6)          109.4703         0.200000   
     25. A(C   0,C   1,N  11)          113.5392         0.200000   
     26. A(C   0,C   1,H   4)          104.3016         0.200000   
     27. A(H   4,Cl  3,H   5)           53.2572         0.200000   
     28. A(C   1,H   4,Cl  3)          139.0684         0.200000   
     29. A(C   0,H   5,Cl  3)          106.2552         0.200000   
     30. A(H   9,C   7,H  10)          110.2466         0.200000   
     31. A(H   8,C   7,H  10)          109.0434         0.200000   
     32. A(C   0,C   7,H  10)          107.1058         0.200000   
     33. A(H   8,C   7,H   9)          108.3674         0.200000   
     34. A(C   0,C   7,H   9)          110.9391         0.200000   
     35. A(C   0,C   7,H   8)          111.1260         0.200000   
     36. A(H  12,N  11,H  13)          107.8195         0.200000   
     37. A(C   1,N  11,H  13)          106.8764         0.200000   
     38. A(C   1,N  11,H  12)          106.5450         0.200000   
     39. D(H   6,C   1,C   0,C   7)     55.8063         0.100000   
     40. D(N  11,C   1,C   0,Cl  2)     56.5054         0.100000   
     41. D(N  11,C   1,C   0,H   5)    -57.4346         0.100000   
     42. D(H   6,C   1,C   0,H   5)    179.1535         0.100000   
     43. D(H   4,C   1,C   0,H   5)     59.4355         0.100000   
     44. D(H   6,C   1,C   0,Cl  2)    -66.9065         0.100000   
     45. D(N  11,C   1,C   0,C   7)    179.2182         0.100000   
     46. D(H   4,C   1,C   0,Cl  2)    173.3755         0.100000   
     47. D(H   4,C   1,C   0,C   7)    -63.9117         0.100000   
     48. D(Cl  3,H   4,C   1,N  11)     78.5923         0.100000   
     49. D(Cl  3,H   4,C   1,H   6)   -160.4706         0.100000   
     50. D(Cl  3,H   4,C   1,C   0)    -42.3032         0.100000   
     51. D(C   1,H   4,Cl  3,H   5)     16.1314         0.100000   
     52. D(Cl  3,H   5,C   0,Cl  2)   -164.6504         0.100000   
     53. D(Cl  3,H   5,C   0,C   1)    -48.3507         0.100000   
     54. D(C   0,H   5,Cl  3,H   4)     25.7151         0.100000   
     55. D(Cl  3,H   5,C   0,C   7)     76.9355         0.100000   
     56. D(H  10,C   7,C   0,H   5)    -61.4195         0.100000   
     57. D(H  10,C   7,C   0,Cl  2)   -177.0412         0.100000   
     58. D(H  10,C   7,C   0,C   1)     60.7454         0.100000   
     59. D(H   9,C   7,C   0,H   5)    178.2200         0.100000   
     60. D(H   9,C   7,C   0,Cl  2)     62.5983         0.100000   
     61. D(H   9,C   7,C   0,C   1)    -59.6152         0.100000   
     62. D(H   8,C   7,C   0,H   5)     57.5861         0.100000   
     63. D(H   8,C   7,C   0,Cl  2)    -58.0355         0.100000   
     64. D(H   8,C   7,C   0,C   1)    179.7510         0.100000   
     65. D(H  13,N  11,C   1,C   0)    -35.3063         0.100000   
     66. D(H  12,N  11,C   1,H   6)   -157.1420         0.100000   
     67. D(H  12,N  11,C   1,H   4)    -35.1442         0.100000   
     68. D(H  13,N  11,C   1,H   4)   -150.2143         0.100000   
     69. D(H  12,N  11,C   1,C   0)     79.7638         0.100000   
     70. D(H  13,N  11,C   1,H   6)     87.7879         0.100000   
    -----------------------------------------------------------------

Number of atoms                         .... 14
Number of degrees of freedom            .... 70

         *************************************************************
         *                GEOMETRY OPTIMIZATION CYCLE   1            *
         *************************************************************
---------------------------------
CARTESIAN COORDINATES (ANGSTROEM)
---------------------------------
  C     -0.129623   -0.096141   -0.231416
  C     -0.212386   -0.144307    1.281347
  Cl     1.610714    0.179211   -0.719065
  Cl    -3.209844    0.763628    0.777175
  H     -1.288558   -0.188318    1.492752
  H     -0.666550    0.786385   -0.576484
  H      0.310901   -1.036476    1.648086
  C     -0.658820   -1.335464   -0.908992
  H     -0.582799   -1.253094   -1.994926
  H     -0.103268   -2.222369   -0.590871
  H     -1.711267   -1.428898   -0.631416
  N      0.317621    1.049843    1.932533
  H     -0.407314    1.757839    1.872244
  H      1.106406    1.364309    1.374968

----------------------------
CARTESIAN COORDINATES (A.U.)
----------------------------
  NO LB      ZA    FRAG     MASS         X           Y           Z
   0 C     6.0000    0    12.011   -0.244951   -0.181679   -0.437314
   1 C     6.0000    0    12.011   -0.401352   -0.272701    2.421394
   2 Cl   17.0000    0    35.453    3.043808    0.338660   -1.358837
   3 Cl   17.0000    0    35.453   -6.065725    1.443048    1.468647
   4 H     1.0000    0     1.008   -2.435021   -0.355870    2.820893
   5 H     1.0000    0     1.008   -1.259597    1.486051   -1.089397
   6 H     1.0000    0     1.008    0.587517   -1.958655    3.114430
   7 C     6.0000    0    12.011   -1.244989   -2.523662   -1.717745
   8 H     1.0000    0     1.008   -1.101330   -2.368004   -3.769864
   9 H     1.0000    0     1.008   -0.195148   -4.199669   -1.116584
  10 H     1.0000    0     1.008   -3.233826   -2.700227   -1.193203
  11 N     7.0000    0    14.007    0.600217    1.983917    3.651958
  12 H     1.0000    0     1.008   -0.769711    3.321833    3.538028
  13 H     1.0000    0     1.008    2.090805    2.578170    2.598313

--------------------------------
INTERNAL COORDINATES (ANGSTROEM)
--------------------------------
 C      0   0   0     0.000000000000     0.00000000     0.00000000
 C      1   0   0     1.515790695727     0.00000000     0.00000000
 Cl     1   2   0     1.828220842164   108.84224733     0.00000000
 Cl     2   1   3     3.172268375600    83.33198614   154.93322591
 H      2   1   3     1.097622041658   104.30162746   173.37547278
 H      1   2   3     1.089134370926   108.36236624   246.06007246
 H      2   1   3     1.097401972431   109.47033195   293.09345884
 C      1   2   3     1.508337259637   113.76941661   122.71284759
 H      8   1   2     1.091704171384   111.12599245   179.75097586
 H      8   1   2     1.093818581359   110.93910803   300.38481395
 H      8   1   2     1.092439270402   107.10577208    60.74536479
 N      2   1   3     1.459776278787   113.53921095    56.50536940
 H     12   2   1     1.015097102784   106.54496927    79.76384138
 H     12   2   1     1.015848922377   106.87644995   324.69374463

---------------------------
INTERNAL COORDINATES (A.U.)
---------------------------
 C      0   0   0     0.000000000000     0.00000000     0.00000000
 C      1   0   0     2.864429291269     0.00000000     0.00000000
 Cl     1   2   0     3.454836704017   108.84224733     0.00000000
 Cl     2   1   3     5.994718453183    83.33198614   154.93322591
 H      2   1   3     2.074205057289   104.30162746   173.37547278
 H      1   2   3     2.058165684091   108.36236624   246.06007246
 H      2   1   3     2.073789186720   109.47033195   293.09345884
 C      1   2   3     2.850344338303   113.76941661   122.71284759
 H      8   1   2     2.063021903175   111.12599245   179.75097586
 H      8   1   2     2.067017558962   110.93910803   300.38481395
 H      8   1   2     2.064411039000   107.10577208    60.74536479
 N      2   1   3     2.758577383702   113.53921095    56.50536940
 H     12   2   1     1.918255523598   106.54496927    79.76384138
 H     12   2   1     1.919676256732   106.87644995   324.69374463

---------------------
BASIS SET INFORMATION
---------------------
There are 4 groups of distinct atoms

 Group   1 Type C   : 11s5p1d contracted to 4s3p1d pattern {6311/311/1}
 Group   2 Type Cl  : 13s10p1d contracted to 6s5p1d pattern {631111/52111/1}
 Group   3 Type H   : 5s contracted to 3s pattern {311}
 Group   4 Type N   : 11s5p1d contracted to 4s3p1d pattern {6311/311/1}

Atom   0C    basis set group =>   1
Atom   1C    basis set group =>   1
Atom   2Cl   basis set group =>   2
Atom   3Cl   basis set group =>   2
Atom   4H    basis set group =>   3
Atom   5H    basis set group =>   3
Atom   6H    basis set group =>   3
Atom   7C    basis set group =>   1
Atom   8H    basis set group =>   3
Atom   9H    basis set group =>   3
Atom  10H    basis set group =>   3
Atom  11N    basis set group =>   4
Atom  12H    basis set group =>   3
Atom  13H    basis set group =>   3
------------------------------------------------------------------------------
                           ORCA GTO INTEGRAL CALCULATION
------------------------------------------------------------------------------

                         BASIS SET STATISTICS AND STARTUP INFO

 # of primitive gaussian shells          ...  156
 # of primitive gaussian functions       ...  260
 # of contracted shells                  ...   80
 # of contracted basis functions         ...  148
 Highest angular momentum                ...    2
 Maximum contraction depth               ...    6
 Integral package used                   ... LIBINT
 Integral threshhold            Thresh   ...  3.000e-16
 Primitive cut-off              TCut     ...  3.000e-18


------------------------------ INTEGRAL EVALUATION ----------------------------


 * One electron integrals 
 Pre-screening matrix                    ... done
 Shell pair data                         ... done (   0.002 sec)

-------------------------------------------------------------------------------
                                 ORCA SCF
-------------------------------------------------------------------------------

------------
SCF SETTINGS
------------
Hamiltonian:
 Ab initio Hamiltonian  Method          .... Hartree-Fock(GTOs)


General Settings:
 Integral files         IntName         .... run
 Hartree-Fock type      HFTyp           .... RHF
 Total Charge           Charge          ....   -1
 Multiplicity           Mult            ....    1
 Number of Electrons    NEL             ....   68
 Basis Dimension        Dim             ....  148
 Nuclear Repulsion      ENuc            ....    352.9116371993 Eh

Convergence Acceleration:
 DIIS                   CNVDIIS         .... on
   Start iteration      DIISMaxIt       ....    12
   Startup error        DIISStart       ....  0.200000
   # of expansion vecs  DIISMaxEq       ....     5
   Bias factor          DIISBfac        ....   1.050
   Max. coefficient     DIISMaxC        ....  10.000
 Newton-Raphson         CNVNR           .... off
 SOSCF                  CNVSOSCF        .... on
   Start iteration      SOSCFMaxIt      ....   150
   Startup grad/error   SOSCFStart      ....  0.003300
 Level Shifting         CNVShift        .... on
   Level shift para.    LevelShift      ....    0.2500
   Turn off err/grad.   ShiftErr        ....    0.0010
 Zerner damping         CNVZerner       .... off
 Static damping         CNVDamp         .... on
   Fraction old density DampFac         ....    0.7000
   Max. Damping (<1)    DampMax         ....    0.9800
   Min. Damping (>=0)   DampMin         ....    0.0000
   Turn off err/grad.   DampErr         ....    0.1000
 Fernandez-Rico         CNVRico         .... off

SCF Procedure:
 Maximum # iterations   MaxIter         ....   125
 SCF integral mode      SCFMode         .... Direct
   Integral package                     .... LIBINT
 Reset frequeny         DirectResetFreq ....    20
 Integral Threshold     Thresh          ....  3.000e-16 Eh
 Primitive CutOff       TCut            ....  3.000e-18 Eh

Convergence Tolerance:
 Convergence Check Mode ConvCheckMode   .... All-Criteria
 Convergence forced     ConvForced      .... 1
 Energy Change          TolE            ....  1.000e-14 Eh
 Max Density Change     TolMaxP         ....  1.000e-14
 RMS Density Change     TolRMSP         ....  1.000e-14
 Orbital Gradient       TolG            ....  1.000e-09
 Orbital Rotation angle TolX            ....  1.000e-09
 DIIS Error             TolErr          ....  1.000e-14


Diagonalization of the overlap matrix:
Smallest eigenvalue                        ... 2.366e-03
Time for diagonalization                   ...    0.004 sec
Threshold for overlap eigenvalues          ... 1.000e-08
Number of eigenvalues below threshold      ... 0
Time for construction of square roots      ...    0.001 sec
Total time needed                          ...    0.005 sec

-------------------
DFT GRID GENERATION
-------------------

General Integration Accuracy     IntAcc      ...  4.340
Radial Grid Type                 RadialGrid  ... Gauss-Chebyshev
Angular Grid (max. acc.)         AngularGrid ... Lebedev-110
Angular grid pruning method      GridPruning ... 3 (G Style)
Weight generation scheme         WeightScheme... Becke
Basis function cutoff            BFCut       ...    3.0000e-16
Integration weight cutoff        WCut        ...    1.0000e-14
Grids for H and He will be reduced by one unit

# of grid points (after initial pruning)     ...  16710 (   0.0 sec)
# of grid points (after weights+screening)   ...  15604 (   0.0 sec)
nearest neighbour list constructed           ...    0.0 sec
Grid point re-assignment to atoms done       ...    0.0 sec
Grid point division into batches done        ...    0.0 sec
Reduced shell lists constructed in    0.3 sec

Total number of grid points                  ...    15604
Total number of batches                      ...      249
Average number of points per batch           ...       62
Average number of grid points per atom       ...     1115
Average number of shells per batch           ...    58.01 (72.52%)
Average number of basis functions per batch  ...   109.71 (74.13%)
Average number of large shells per batch     ...    47.67 (82.18%)
Average number of large basis fcns per batch ...    89.72 (81.78%)
Maximum spatial batch extension              ...  21.76, 24.46, 21.09 au
Average spatial batch extension              ...   3.93,  4.02,  4.01 au

Time for grid setup =    0.363 sec

------------------------------
INITIAL GUESS: MODEL POTENTIAL
------------------------------
Loading Hartree-Fock densities                     ... done
Calculating cut-offs                               ... done
Setting up the integral package                    ... done
Initializing the effective Hamiltonian             ... done
Starting the Coulomb interaction                   ... done (   0.2 sec)
Reading the grid                                   ... done
Mapping shells                                     ... done
Starting the XC term evaluation                    ... done (   0.3 sec)
Transforming the Hamiltonian                       ... done (   0.0 sec)
Diagonalizing the Hamiltonian                      ... done (   0.0 sec)
Back transforming the eigenvectors                 ... done (   0.0 sec)
Now organizing SCF variables                       ... done
                      ------------------
                      INITIAL GUESS DONE (   1.0 sec)
                      ------------------
--------------
SCF ITERATIONS
--------------
ITER       Energy         Delta-E        Max-DP      RMS-DP      [F,P]     Damp
               ***  Starting incremental Fock matrix formation  ***
  0  -1091.4679989052   0.000000000000 0.06414857  0.00180817  0.6499326 0.7000
  1  -1091.5934437030  -0.125444797747 0.04732383  0.00142616  0.4562869 0.7000
  2  -1091.6692228432  -0.075779140243 0.02914541  0.00091597  0.3211034 0.7000
  3  -1091.7171336123  -0.047910769042 0.01708186  0.00056838  0.2267177 0.7000
                               ***Turning on DIIS***
  4  -1091.7493674996  -0.032233887309 0.00982573  0.00036384  0.1598663 0.7000
  5  -1092.1312017001  -0.381834200494 0.00789818  0.00025178  0.1125979 0.7000
  6  -1092.0703670429   0.060834657162 0.01999128  0.00064565  0.0788676 0.0000
  7  -1091.8343445127   0.236022530228 0.00229915  0.00007707  0.0035915 0.0000
                      *** Initiating the SOSCF procedure ***
                           *** Shutting down DIIS ***
                      *** Re-Reading the Fockian *** 
                      *** Removing any level shift *** 
ITER      Energy       Delta-E        Grad      Rot      Max-DP    RMS-DP
  8  -1091.82900195   0.0053425598  0.000563  0.000563  0.001012  0.000045
               *** Restarting incremental Fock matrix formation ***
  9  -1091.82455643   0.0044455264  0.000258  0.000386  0.000646  0.000022
 10  -1091.82455907  -0.0000026435  0.000093  0.000260  0.000372  0.000018
 11  -1091.82455971  -0.0000006403  0.000031  0.000019  0.000061  0.000003
 12  -1091.82455974  -0.0000000329  0.000005  0.000009  0.000021  0.000001
 13  -1091.82455975  -0.0000000027  0.000002  0.000006  0.000008  0.000000
 14  -1091.82455975  -0.0000000003  0.000001  0.000001  0.000002  0.000000
 15  -1091.82455975  -0.0000000000  0.000000  0.000000  0.000000  0.000000
 16  -1091.82455975  -0.0000000000  0.000000  0.000000  0.000000  0.000000
 17  -1091.82455975   0.0000000000  0.000000  0.000000  0.000000  0.000000
 18  -1091.82455975  -0.0000000000  0.000000  0.000000  0.000000  0.000000
 19  -1091.82455975   0.0000000000  0.000000  0.000000  0.000000  0.000000
 20  -1091.82455975   0.0000000000  0.000000  0.000000  0.000000  0.000000
                    ***Orbital Rotation convergence achieved***
 21  -1091.82455975  -0.0000000000  0.000000  0.000000  0.000000  0.000000
 22  -1091.82455975   0.0000000000  0.000000  0.000000  0.000000  0.000000
                          ***Energy convergence achieved***
                           ***RMSP convergence achieved***
                           ***MAXP convergence achieved***
                       ***Gradient convergence achieved***
              ***Rediagonalizing the Fockian in SOSCF/NRSCF***

               *****************************************************
               *                     SUCCESS                       *
               *           SCF CONVERGED AFTER  23 CYCLES          *
               *****************************************************


----------------
TOTAL SCF ENERGY
----------------

Total Energy       :        -1091.82455975 Eh          -29710.05670 eV

Components:
Nuclear Repulsion  :          352.91163720 Eh            9603.21387 eV
Electronic Energy  :        -1444.73619695 Eh          -39313.27057 eV
One Electron Energy:        -2218.12172096 Eh          -60358.16058 eV
Two Electron Energy:          773.38552401 Eh           21044.89001 eV

Virial components:
Potential Energy   :        -2183.81295905 Eh          -59424.57170 eV
Kinetic Energy     :         1091.98839930 Eh           29714.51500 eV
Virial Ratio       :            1.99984996


---------------
SCF CONVERGENCE
---------------

  Last Energy change         ...    0.0000e+00  Tolerance :   1.0000e-14
  Last MAX-Density change    ...    0.0000e+00  Tolerance :   1.0000e-14
  Last RMS-Density change    ...    0.0000e+00  Tolerance :   1.0000e-14
  Last Orbital Gradient      ...    9.9963e-10  Tolerance :   1.0000e-09
  Last Orbital Rotation      ...    0.0000e+00  Tolerance :   1.0000e-09

             **** THE GBW FILE WAS UPDATED (run.gbw) ****
             **** DENSITY FILE WAS UPDATED (run.scfp.tmp) ****
             **** ENERGY FILE WAS UPDATED (run.en.tmp) ****
----------------
ORBITAL ENERGIES
----------------

  NO   OCC          E(Eh)            E(eV) 
   0   2.0000    -104.696097     -2848.9256 
   1   2.0000    -104.531978     -2844.4597 
   2   2.0000     -15.397904      -418.9983 
   3   2.0000     -11.161551      -303.7213 
   4   2.0000     -11.106544      -302.2244 
   5   2.0000     -11.103299      -302.1361 
   6   2.0000     -10.423584      -283.6401 
   7   2.0000     -10.258120      -279.1376 
   8   2.0000      -7.891583      -214.7409 
   9   2.0000      -7.889312      -214.6791 
  10   2.0000      -7.889176      -214.6754 
  11   2.0000      -7.725055      -210.2094 
  12   2.0000      -7.724914      -210.2056 
  13   2.0000      -7.724899      -210.2052 
  14   2.0000      -1.062488       -28.9118 
  15   2.0000      -0.996160       -27.1069 
  16   2.0000      -0.887210       -24.1422 
  17   2.0000      -0.781871       -21.2758 
  18   2.0000      -0.768350       -20.9079 
  19   2.0000      -0.662091       -18.0164 
  20   2.0000      -0.549909       -14.9638 
  21   2.0000      -0.498773       -13.5723 
  22   2.0000      -0.489206       -13.3120 
  23   2.0000      -0.453253       -12.3336 
  24   2.0000      -0.412363       -11.2210 
  25   2.0000      -0.399722       -10.8770 
  26   2.0000      -0.390105       -10.6153 
  27   2.0000      -0.354513        -9.6468 
  28   2.0000      -0.317179        -8.6309 
  29   2.0000      -0.313323        -8.5259 
  30   2.0000      -0.261303        -7.1104 
  31   2.0000      -0.185929        -5.0594 
  32   2.0000      -0.185723        -5.0538 
  33   2.0000      -0.181851        -4.9484 
  34   0.0000       0.285660         7.7732 
  35   0.0000       0.302315         8.2264 
  36   0.0000       0.311467         8.4754 
  37   0.0000       0.321819         8.7571 
  38   0.0000       0.355991         9.6870 
  39   0.0000       0.365382         9.9425 
  40   0.0000       0.379279        10.3207 
  41   0.0000       0.394402        10.7322 
  42   0.0000       0.438636        11.9359 
  43   0.0000       0.475270        12.9328 
  44   0.0000       0.495634        13.4869 
  45   0.0000       0.504875        13.7384 
  46   0.0000       0.549656        14.9569 
  47   0.0000       0.573161        15.5965 
  48   0.0000       0.586752        15.9663 
  49   0.0000       0.610968        16.6253 
  50   0.0000       0.632538        17.2122 
  51   0.0000       0.657782        17.8992 
  52   0.0000       0.670442        18.2437 
  53   0.0000       0.676146        18.3989 
  54   0.0000       0.696048        18.9404 
  55   0.0000       0.700894        19.0723 
  56   0.0000       0.711868        19.3709 
  57   0.0000       0.725456        19.7407 
  58   0.0000       0.749240        20.3879 
  59   0.0000       0.820058        22.3149 
  60   0.0000       0.896387        24.3919 
  61   0.0000       0.900542        24.5050 
  62   0.0000       0.916608        24.9422 
  63   0.0000       0.926400        25.2086 
  64   0.0000       0.936950        25.4957 
  65   0.0000       0.947387        25.7797 
  66   0.0000       0.950921        25.8759 
  67   0.0000       0.975727        26.5509 
  68   0.0000       0.996594        27.1187 
  69   0.0000       1.055806        28.7299 
  70   0.0000       1.081244        29.4222 
  71   0.0000       1.142879        31.0993 
  72   0.0000       1.159645        31.5555 
  73   0.0000       1.189358        32.3641 
  74   0.0000       1.224659        33.3247 
  75   0.0000       1.255776        34.1714 
  76   0.0000       1.274137        34.6710 
  77   0.0000       1.319176        35.8966 
  78   0.0000       1.349807        36.7301 
  79   0.0000       1.378795        37.5189 
  80   0.0000       1.421197        38.6727 
  81   0.0000       1.436622        39.0925 
  82   0.0000       1.440501        39.1980 
  83   0.0000       1.446713        39.3671 
  84   0.0000       1.470359        40.0105 
  85   0.0000       1.490421        40.5564 
  86   0.0000       1.514454        41.2104 
  87   0.0000       1.548051        42.1246 
  88   0.0000       1.628173        44.3048 
  89   0.0000       1.707027        46.4506 
  90   0.0000       1.779778        48.4302 
  91   0.0000       1.874482        51.0073 
  92   0.0000       1.902879        51.7800 
  93   0.0000       1.923145        52.3314 
  94   0.0000       1.968429        53.5637 
  95   0.0000       2.025436        55.1149 
  96   0.0000       2.032700        55.3126 
  97   0.0000       2.096817        57.0573 
  98   0.0000       2.186557        59.4992 
  99   0.0000       2.257234        61.4225 
 100   0.0000       2.279508        62.0286 
 101   0.0000       2.359555        64.2068 
 102   0.0000       2.391481        65.0755 
 103   0.0000       2.446674        66.5774 
 104   0.0000       2.526626        68.7530 
 105   0.0000       2.634276        71.6823 
 106   0.0000       2.656565        72.2888 
 107   0.0000       2.698997        73.4434 
 108   0.0000       2.713206        73.8301 
 109   0.0000       2.762431        75.1696 
 110   0.0000       2.776202        75.5443 
 111   0.0000       2.791649        75.9646 
 112   0.0000       2.799369        76.1747 
 113   0.0000       2.830495        77.0217 
 114   0.0000       2.907086        79.1058 
 115   0.0000       2.918013        79.4032 
 116   0.0000       2.967353        80.7458 
 117   0.0000       2.993709        81.4630 
 118   0.0000       3.063860        83.3719 
 119   0.0000       3.076880        83.7262 
 120   0.0000       3.249147        88.4138 
 121   0.0000       3.409069        92.7655 
 122   0.0000       3.450820        93.9016 
 123   0.0000       3.555958        96.7625 
 124   0.0000       3.618046        98.4520 
 125   0.0000       3.668009        99.8116 
 126   0.0000       3.732904       101.5775 
 127   0.0000       3.812576       103.7455 
 128   0.0000       3.858019       104.9820 
 129   0.0000       4.160926       113.2246 
 130   0.0000       4.450697       121.1096 
 131   0.0000       4.531436       123.3066 
 132   0.0000       4.695401       127.7684 
 133   0.0000       5.168567       140.6439 
 134   0.0000      10.415596       283.4228 
 135   0.0000      10.456237       284.5287 
 136   0.0000      24.669233       671.2839 
 137   0.0000      24.922334       678.1712 
 138   0.0000      24.994706       680.1405 
 139   0.0000      26.481031       720.5855 
 140   0.0000      26.577703       723.2161 
 141   0.0000      26.602527       723.8916 
 142   0.0000      26.616340       724.2674 
 143   0.0000      26.685501       726.1494 
 144   0.0000      27.078569       736.8453 
 145   0.0000      36.981949      1006.3300 
 146   0.0000     219.244628      5965.9496 
 147   0.0000     219.271908      5966.6920 

                    ********************************
                    * MULLIKEN POPULATION ANALYSIS *
                    ********************************

-----------------------
MULLIKEN ATOMIC CHARGES
-----------------------
   0 C :   -0.268698
   1 C :   -0.194864
   2 Cl:   -0.259323
   3 Cl:   -0.942052
   4 H :    0.317559
   5 H :    0.282171
   6 H :    0.167376
   7 C :   -0.589411
   8 H :    0.199263
   9 H :    0.185684
  10 H :    0.274437
  11 N :   -0.847699
  12 H :    0.348154
  13 H :    0.327403
Sum of atomic charges:   -1.0000000

--------------------------------
MULLIKEN REDUCED ORBITAL CHARGES
--------------------------------
  0 C s       :     3.336010  s :     3.336010
      pz      :     1.002977  p :     2.833702
      px      :     0.705609
      py      :     1.125116
      dz2     :     0.023898  d :     0.098986
      dxz     :     0.016024
      dyz     :     0.016686
      dx2y2   :     0.022091
      dxy     :     0.020288
  1 C s       :     3.236553  s :     3.236553
      pz      :     0.811439  p :     2.857841
      px      :     1.163661
      py      :     0.882742
      dz2     :     0.030455  d :     0.100471
      dxz     :     0.008695
      dyz     :     0.019996
      dx2y2   :     0.022964
      dxy     :     0.018361
  2 Cls       :     5.963712  s :     5.963712
      pz      :     3.934167  p :    11.272781
      px      :     3.380541
      py      :     3.958072
      dz2     :     0.003348  d :     0.022830
      dxz     :     0.005457
      dyz     :     0.000534
      dx2y2   :     0.009719
      dxy     :     0.003772
  3 Cls       :     5.988096  s :     5.988096
      pz      :     3.985682  p :    11.953381
      px      :     3.981751
      py      :     3.985947
      dz2     :     0.000055  d :     0.000575
      dxz     :     0.000157
      dyz     :     0.000034
      dx2y2   :     0.000137
      dxy     :     0.000193
  4 H s       :     0.682441  s :     0.682441
  5 H s       :     0.717829  s :     0.717829
  6 H s       :     0.832624  s :     0.832624
  7 C s       :     3.344403  s :     3.344403
      pz      :     1.073003  p :     3.174162
      px      :     1.129799
      py      :     0.971360
      dz2     :     0.024052  d :     0.070845
      dxz     :     0.005898
      dyz     :     0.009560
      dx2y2   :     0.017309
      dxy     :     0.014025
  8 H s       :     0.800737  s :     0.800737
  9 H s       :     0.814316  s :     0.814316
 10 H s       :     0.725563  s :     0.725563
 11 N s       :     3.699491  s :     3.699491
      pz      :     1.744741  p :     4.111664
      px      :     1.218626
      py      :     1.148297
      dz2     :     0.003678  d :     0.036543
      dxz     :     0.008985
      dyz     :     0.007240
      dx2y2   :     0.003386
      dxy     :     0.013255
 12 H s       :     0.651846  s :     0.651846
 13 H s       :     0.672597  s :     0.672597


                     *******************************
                     * LOEWDIN POPULATION ANALYSIS *
                     *******************************

----------------------
LOEWDIN ATOMIC CHARGES
----------------------
   0 C :   -0.182524
   1 C :   -0.193788
   2 Cl:   -0.063632
   3 Cl:   -0.885587
   4 H :    0.125672
   5 H :    0.118446
   6 H :    0.071643
   7 C :   -0.281922
   8 H :    0.093838
   9 H :    0.089184
  10 H :    0.129342
  11 N :   -0.388498
  12 H :    0.198589
  13 H :    0.169237

-------------------------------
LOEWDIN REDUCED ORBITAL CHARGES
-------------------------------
  0 C s       :     2.891358  s :     2.891358
      pz      :     1.109763  p :     3.100853
      px      :     0.862205
      py      :     1.128886
      dz2     :     0.047229  d :     0.190312
      dxz     :     0.033186
      dyz     :     0.031318
      dx2y2   :     0.042931
      dxy     :     0.035649
  1 C s       :     2.855778  s :     2.855778
      pz      :     1.012164  p :     3.149315
      px      :     1.137083
      py      :     1.000068
      dz2     :     0.061011  d :     0.188695
      dxz     :     0.017333
      dyz     :     0.042479
      dx2y2   :     0.037302
      dxy     :     0.030570
  2 Cls       :     5.742033  s :     5.742033
      pz      :     3.909819  p :    11.296797
      px      :     3.445114
      py      :     3.941864
      dz2     :     0.003642  d :     0.024802
      dxz     :     0.006048
      dyz     :     0.000630
      dx2y2   :     0.010145
      dxy     :     0.004338
  3 Cls       :     5.961322  s :     5.961322
      pz      :     3.981599  p :    11.923678
      px      :     3.959927
      py      :     3.982152
      dz2     :     0.000056  d :     0.000586
      dxz     :     0.000164
      dyz     :     0.000033
      dx2y2   :     0.000135
      dxy     :     0.000199
  4 H s       :     0.874328  s :     0.874328
  5 H s       :     0.881554  s :     0.881554
  6 H s       :     0.928357  s :     0.928357
  7 C s       :     2.890140  s :     2.890140
      pz      :     1.084357  p :     3.281063
      px      :     1.126275
      py      :     1.070431
      dz2     :     0.035114  d :     0.110718
      dxz     :     0.008113
      dyz     :     0.017998
      dx2y2   :     0.026923
      dxy     :     0.022570
  8 H s       :     0.906162  s :     0.906162
  9 H s       :     0.910816  s :     0.910816
 10 H s       :     0.870658  s :     0.870658
 11 N s       :     3.211717  s :     3.211717
      pz      :     1.694276  p :     4.125917
      px      :     1.228666
      py      :     1.202975
      dz2     :     0.004529  d :     0.050864
      dxz     :     0.010233
      dyz     :     0.010691
      dx2y2   :     0.006660
      dxy     :     0.018751
 12 H s       :     0.801411  s :     0.801411
 13 H s       :     0.830763  s :     0.830763


                      *****************************
                      * MAYER POPULATION ANALYSIS *
                      *****************************

  NA   - Mulliken gross atomic population
  ZA   - Total nuclear charge
  QA   - Mulliken gross atomic charge
  VA   - Mayer's total valence
  BVA  - Mayer's bonded valence
  FA   - Mayer's free valence

  ATOM       NA         ZA         QA         VA         BVA        FA
  0 C      6.2687     6.0000    -0.2687     3.5926     3.5926    -0.0000
  1 C      6.1949     6.0000    -0.1949     3.5214     3.5214    -0.0000
  2 Cl    17.2593    17.0000    -0.2593     0.8235     0.8235    -0.0000
  3 Cl    17.9421    17.0000    -0.9421     0.0769     0.0769    -0.0000
  4 H      0.6824     1.0000     0.3176     0.8756     0.8756     0.0000
  5 H      0.7178     1.0000     0.2822     0.8787     0.8787     0.0000
  6 H      0.8326     1.0000     0.1674     0.9247     0.9247     0.0000
  7 C      6.5894     6.0000    -0.5894     3.6390     3.6390    -0.0000
  8 H      0.8007     1.0000     0.1993     0.9124     0.9124    -0.0000
  9 H      0.8143     1.0000     0.1857     0.9174     0.9174    -0.0000
 10 H      0.7256     1.0000     0.2744     0.8967     0.8967    -0.0000
 11 N      7.8477     7.0000    -0.8477     2.5928     2.5928     0.0000
 12 H      0.6518     1.0000     0.3482     0.8510     0.8510    -0.0000
 13 H      0.6726     1.0000     0.3274     0.8476     0.8476    -0.0000

  Mayer bond orders larger than 0.1
B(  0-C ,  1-C ) :   0.9272 B(  0-C ,  2-Cl) :   0.9159 B(  0-C ,  5-H ) :   0.8935 
B(  0-C ,  7-C ) :   0.9379 B(  1-C ,  4-H ) :   0.8659 B(  1-C ,  6-H ) :   0.9529 
B(  1-C , 11-N ) :   0.9044 B(  7-C ,  8-H ) :   0.9556 B(  7-C ,  9-H ) :   0.9492 
B(  7-C , 10-H ) :   0.9085 B( 11-N , 12-H ) :   0.8474 B( 11-N , 13-H ) :   0.8621 


-------
TIMINGS
-------

Total SCF time: 0 days 0 hours 1 min 45 sec 

Total time                  ....     105.593 sec
Sum of individual times     ....     105.551 sec  (100.0%)

Fock matrix formation       ....     104.412 sec  ( 98.9%)
Diagonalization             ....       0.050 sec  (  0.0%)
Density matrix formation    ....       0.007 sec  (  0.0%)
Population analysis         ....       0.007 sec  (  0.0%)
Initial guess               ....       0.658 sec  (  0.6%)
Orbital Transformation      ....       0.000 sec  (  0.0%)
Orbital Orthonormalization  ....       0.000 sec  (  0.0%)
DIIS solution               ....       0.011 sec  (  0.0%)
SOSCF solution              ....       0.042 sec  (  0.0%)

------------------------------------------------------------------------------
                                ORCA  MP2 
------------------------------------------------------------------------------

MP2 will be done in the AO integral direct mode
The Q1-step will be done using symmetric double matrices
Dimension of the basis                    ...  148
Memory devoted for MP2                    ... 5000 MB   
Memory needed for all in one shot         ...  424 MB
Number of MOs that can be treated together...  400      
MP2 density construction                  ... relaxed
The MP2 gradient is requested => amplitudes will be stored on disk
Total number of MOs              ...   34
Number of MOs treated per batch  ...   34 
Number of batches necessary      ...    1 
OPERATORS   0/  0 PASS   0
-----------------------------------------------
 MP2 CORRELATION ENERGY   :     -1.048931573 Eh
-----------------------------------------------


---------------------
MP2 DENSITY FORMATION
---------------------

Completing the external part of the density      ... done
Storing the unrelaxed density                    ... done

Calculating G(D)                                 ... done
Completing the Lagrangian                        ... done
Solving the Z-vector equations                   ... 

------------------------------------------------------------------------------
                           ORCA CP-SCF CALCULATION
------------------------------------------------------------------------------

Input orbitals are from        ... run.gbw
Input Perturbation             ... run.pin.tmp
Wavefunction output            ... run.pout.tmp
Perturbation mode              ... Real perturbation
Solver                         ... POPLE
Max. number of iterations      ... 128
Convergence tolerance          ... 1.000e-11
Integral handling              ... Direct
Number of perturbations        ... 1
Number of operators            ... 1
Orbital ranges used for CP-SCF:
 Operator 0:  Orbitals   0... 33  to  34...147
Variables per vector in CP-SCF ... 3876
Number of vectors sought       ... 1
     CP-SCF ITERATION   0: 
     CP-SCF ITERATION   1:      0.000372678356
     CP-SCF ITERATION   2:      0.000036712216
     CP-SCF ITERATION   3:      0.000003448294
     CP-SCF ITERATION   4:      0.000000370183
     CP-SCF ITERATION   5:      0.000000030829
     CP-SCF ITERATION   6:      0.000000002559
     CP-SCF ITERATION   7:      0.000000000126
     CP-SCF ITERATION   8:      0.000000000010
                                                 ... done
Finalizing the relaxed density                   ... done
Transforming P to the AO basis                   ... done
Storing the relaxed density                      ... done

------------------------------------
ENERGY WEIGHTED DENSITY FINALIZATION
------------------------------------

Gathering the parts of the W-matrix              ...                                                      done
Forming the Z-density                            ... done
Transforming Z to the AO basis                   ... done
Calculating G(Z)                                 ... done
Finalizing the W-matrix                          ...                                                      done
Transforming W to the AO basis and storing       ... done

                *********************************************
                * UNRELAXED MP2 DENSITY POPULATION ANALYSIS *
                *********************************************

------------------------------------------------------------------------------
                           ORCA POPULATION ANALYSIS
------------------------------------------------------------------------------
Input electron density              ... run.pmp2ur
BaseName (.gbw .S,...)              ... run

                    ********************************
                    * MULLIKEN POPULATION ANALYSIS *
                    ********************************

-----------------------
MULLIKEN ATOMIC CHARGES
-----------------------
   0 C :   -0.282626
   1 C :   -0.205724
   2 Cl:   -0.246796
   3 Cl:   -0.937494
   4 H :    0.317225
   5 H :    0.282974
   6 H :    0.170002
   7 C :   -0.596448
   8 H :    0.201844
   9 H :    0.188266
  10 H :    0.275628
  11 N :   -0.840457
  12 H :    0.347280
  13 H :    0.326326
Sum of atomic charges:   -1.0000000

--------------------------------
MULLIKEN REDUCED ORBITAL CHARGES
--------------------------------
  0 C s       :     3.331205  s :     3.331205
      pz      :     0.999342  p :     2.832937
      px      :     0.712128
      py      :     1.121467
      dz2     :     0.027455  d :     0.118484
      dxz     :     0.020240
      dyz     :     0.021070
      dx2y2   :     0.025640
      dxy     :     0.024079
  1 C s       :     3.233891  s :     3.233891
      pz      :     0.810263  p :     2.852357
      px      :     1.159514
      py      :     0.882580
      dz2     :     0.033479  d :     0.119477
      dxz     :     0.013258
      dyz     :     0.023825
      dx2y2   :     0.026692
      dxy     :     0.022223
  2 Cls       :     5.956308  s :     5.956308
      pz      :     3.913693  p :    11.215994
      px      :     3.364580
      py      :     3.937721
      dz2     :     0.013793  d :     0.074494
      dxz     :     0.015724
      dyz     :     0.011176
      dx2y2   :     0.019683
      dxy     :     0.014118
  3 Cls       :     5.981266  s :     5.981266
      pz      :     3.970611  p :    11.907000
      px      :     3.965530
      py      :     3.970859
      dz2     :     0.009724  d :     0.049228
      dxz     :     0.009939
      dyz     :     0.009640
      dx2y2   :     0.009934
      dxy     :     0.009991
  4 H s       :     0.682775  s :     0.682775
  5 H s       :     0.717026  s :     0.717026
  6 H s       :     0.829998  s :     0.829998
  7 C s       :     3.341055  s :     3.341055
      pz      :     1.069924  p :     3.164555
      px      :     1.126198
      py      :     0.968434
      dz2     :     0.027774  d :     0.090838
      dxz     :     0.010239
      dyz     :     0.013579
      dx2y2   :     0.021226
      dxy     :     0.018019
  8 H s       :     0.798156  s :     0.798156
  9 H s       :     0.811734  s :     0.811734
 10 H s       :     0.724372  s :     0.724372
 11 N s       :     3.694744  s :     3.694744
      pz      :     1.732299  p :     4.089446
      px      :     1.213971
      py      :     1.143176
      dz2     :     0.007979  d :     0.056267
      dxz     :     0.013002
      dyz     :     0.011213
      dx2y2   :     0.007238
      dxy     :     0.016834
 12 H s       :     0.652720  s :     0.652720
 13 H s       :     0.673674  s :     0.673674


                     *******************************
                     * LOEWDIN POPULATION ANALYSIS *
                     *******************************

----------------------
LOEWDIN ATOMIC CHARGES
----------------------
   0 C :   -0.197546
   1 C :   -0.206041
   2 Cl:   -0.053328
   3 Cl:   -0.881004
   4 H :    0.128085
   5 H :    0.121659
   6 H :    0.075830
   7 C :   -0.293856
   8 H :    0.097778
   9 H :    0.093116
  10 H :    0.132540
  11 N :   -0.387181
  12 H :    0.199630
  13 H :    0.170317

-------------------------------
LOEWDIN REDUCED ORBITAL CHARGES
-------------------------------
  0 C s       :     2.891712  s :     2.891712
      pz      :     1.103233  p :     3.093167
      px      :     0.866188
      py      :     1.123746
      dz2     :     0.051970  d :     0.212667
      dxz     :     0.037506
      dyz     :     0.036177
      dx2y2   :     0.046877
      dxy     :     0.040137
  1 C s       :     2.857062  s :     2.857062
      pz      :     1.007410  p :     3.138607
      px      :     1.133078
      py      :     0.998118
      dz2     :     0.064930  d :     0.210373
      dxz     :     0.022182
      dyz     :     0.046556
      dx2y2   :     0.041666
      dxy     :     0.035038
  2 Cls       :     5.735488  s :     5.735488
      pz      :     3.889489  p :    11.239483
      px      :     3.428392
      py      :     3.921603
      dz2     :     0.014396  d :     0.078357
      dxz     :     0.016761
      dyz     :     0.011410
      dx2y2   :     0.020710
      dxy     :     0.015081
  3 Cls       :     5.954342  s :     5.954342
      pz      :     3.966442  p :    11.877081
      px      :     3.943635
      py      :     3.967004
      dz2     :     0.009748  d :     0.049581
      dxz     :     0.010059
      dyz     :     0.009682
      dx2y2   :     0.010013
      dxy     :     0.010079
  4 H s       :     0.871915  s :     0.871915
  5 H s       :     0.878341  s :     0.878341
  6 H s       :     0.924170  s :     0.924170
  7 C s       :     2.890939  s :     2.890939
      pz      :     1.080946  p :     3.269151
      px      :     1.122489
      py      :     1.065716
      dz2     :     0.039408  d :     0.133765
      dxz     :     0.012956
      dyz     :     0.022719
      dx2y2   :     0.031488
      dxy     :     0.027194
  8 H s       :     0.902222  s :     0.902222
  9 H s       :     0.906884  s :     0.906884
 10 H s       :     0.867460  s :     0.867460
 11 N s       :     3.210326  s :     3.210326
      pz      :     1.682527  p :     4.104248
      px      :     1.224527
      py      :     1.197195
      dz2     :     0.009114  d :     0.072606
      dxz     :     0.014633
      dyz     :     0.015178
      dx2y2   :     0.010846
      dxy     :     0.022835
 12 H s       :     0.800370  s :     0.800370
 13 H s       :     0.829683  s :     0.829683


                      *****************************
                      * MAYER POPULATION ANALYSIS *
                      *****************************

  NA   - Mulliken gross atomic population
  ZA   - Total nuclear charge
  QA   - Mulliken gross atomic charge
  VA   - Mayer's total valence
  BVA  - Mayer's bonded valence
  FA   - Mayer's free valence

  ATOM       NA         ZA         QA         VA         BVA        FA
  0 C      6.2826     6.0000    -0.2826     3.7100     3.3836     0.3263
  1 C      6.2057     6.0000    -0.2057     3.6274     3.3406     0.2867
  2 Cl    17.2468    17.0000    -0.2468     1.1724     0.7561     0.4163
  3 Cl    17.9375    17.0000    -0.9375     0.4698     0.0745     0.3953
  4 H      0.6828     1.0000     0.3172     0.8780     0.8399     0.0381
  5 H      0.7170     1.0000     0.2830     0.8810     0.8415     0.0395
  6 H      0.8300     1.0000     0.1700     0.9270     0.8858     0.0411
  7 C      6.5964     6.0000    -0.5964     3.7562     3.4790     0.2772
  8 H      0.7982     1.0000     0.2018     0.9141     0.8754     0.0387
  9 H      0.8117     1.0000     0.1883     0.9196     0.8802     0.0394
 10 H      0.7244     1.0000     0.2756     0.8986     0.8610     0.0376
 11 N      7.8405     7.0000    -0.8405     2.7998     2.4629     0.3369
 12 H      0.6527     1.0000     0.3473     0.8535     0.8142     0.0393
 13 H      0.6737     1.0000     0.3263     0.8507     0.8095     0.0412

  Mayer bond orders larger than 0.1
B(  0-C ,  1-C ) :   0.8747 B(  0-C ,  2-Cl) :   0.8496 B(  0-C ,  5-H ) :   0.8578 
B(  0-C ,  7-C ) :   0.8854 B(  1-C ,  4-H ) :   0.8317 B(  1-C ,  6-H ) :   0.9150 
B(  1-C , 11-N ) :   0.8497 B(  7-C ,  8-H ) :   0.9189 B(  7-C ,  9-H ) :   0.9123 
B(  7-C , 10-H ) :   0.8739 B( 11-N , 12-H ) :   0.8119 B( 11-N , 13-H ) :   0.8246 



                *******************************************
                * RELAXED MP2 DENSITY POPULATION ANALYSIS *
                *******************************************

------------------------------------------------------------------------------
                           ORCA POPULATION ANALYSIS
------------------------------------------------------------------------------
Input electron density              ... run.pmp2re
BaseName (.gbw .S,...)              ... run

                    ********************************
                    * MULLIKEN POPULATION ANALYSIS *
                    ********************************

-----------------------
MULLIKEN ATOMIC CHARGES
-----------------------
   0 C :   -0.319330
   1 C :   -0.265318
   2 Cl:   -0.193826
   3 Cl:   -0.910027
   4 H :    0.310693
   5 H :    0.279857
   6 H :    0.177690
   7 C :   -0.635251
   8 H :    0.209197
   9 H :    0.197552
  10 H :    0.280198
  11 N :   -0.784576
  12 H :    0.339069
  13 H :    0.314072
Sum of atomic charges:   -1.0000000

--------------------------------
MULLIKEN REDUCED ORBITAL CHARGES
--------------------------------
  0 C s       :     3.318230  s :     3.318230
      pz      :     1.008152  p :     2.892139
      px      :     0.752092
      py      :     1.131894
      dz2     :     0.024223  d :     0.108962
      dxz     :     0.019880
      dyz     :     0.019857
      dx2y2   :     0.022879
      dxy     :     0.022123
  1 C s       :     3.235889  s :     3.235889
      pz      :     0.836516  p :     2.922481
      px      :     1.180197
      py      :     0.905768
      dz2     :     0.028944  d :     0.106949
      dxz     :     0.012910
      dyz     :     0.022309
      dx2y2   :     0.023059
      dxy     :     0.019727
  2 Cls       :     5.954935  s :     5.954935
      pz      :     3.900626  p :    11.166218
      px      :     3.336919
      py      :     3.928673
      dz2     :     0.013446  d :     0.072672
      dxz     :     0.015577
      dyz     :     0.011249
      dx2y2   :     0.018006
      dxy     :     0.014394
  3 Cls       :     5.978765  s :     5.978765
      pz      :     3.963412  p :    11.881971
      px      :     3.954910
      py      :     3.963649
      dz2     :     0.009731  d :     0.049292
      dxz     :     0.009955
      dyz     :     0.009645
      dx2y2   :     0.009949
      dxy     :     0.010012
  4 H s       :     0.689307  s :     0.689307
  5 H s       :     0.720143  s :     0.720143
  6 H s       :     0.822310  s :     0.822310
  7 C s       :     3.330337  s :     3.330337
      pz      :     1.086400  p :     3.225816
      px      :     1.148866
      py      :     0.990550
      dz2     :     0.023926  d :     0.079097
      dxz     :     0.009121
      dyz     :     0.011925
      dx2y2   :     0.018442
      dxy     :     0.015683
  8 H s       :     0.790803  s :     0.790803
  9 H s       :     0.802448  s :     0.802448
 10 H s       :     0.719802  s :     0.719802
 11 N s       :     3.666398  s :     3.666398
      pz      :     1.718433  p :     4.065689
      px      :     1.208946
      py      :     1.138310
      dz2     :     0.008003  d :     0.052489
      dxz     :     0.012078
      dyz     :     0.010559
      dx2y2   :     0.006707
      dxy     :     0.015143
 12 H s       :     0.660931  s :     0.660931
 13 H s       :     0.685928  s :     0.685928


                     *******************************
                     * LOEWDIN POPULATION ANALYSIS *
                     *******************************

----------------------
LOEWDIN ATOMIC CHARGES
----------------------
   0 C :   -0.227241
   1 C :   -0.238548
   2 Cl:   -0.021496
   3 Cl:   -0.865914
   4 H :    0.133273
   5 H :    0.123854
   6 H :    0.084642
   7 C :   -0.328649
   8 H :    0.106481
   9 H :    0.102297
  10 H :    0.140750
  11 N :   -0.382040
  12 H :    0.201235
  13 H :    0.171357

-------------------------------
LOEWDIN REDUCED ORBITAL CHARGES
-------------------------------
  0 C s       :     2.896533  s :     2.896533
      pz      :     1.102426  p :     3.125086
      px      :     0.895725
      py      :     1.126935
      dz2     :     0.049668  d :     0.205622
      dxz     :     0.037438
      dyz     :     0.035642
      dx2y2   :     0.043990
      dxy     :     0.038885
  1 C s       :     2.863044  s :     2.863044
      pz      :     1.020684  p :     3.176314
      px      :     1.145884
      py      :     1.009746
      dz2     :     0.060913  d :     0.199191
      dxz     :     0.022018
      dyz     :     0.045229
      dx2y2   :     0.038438
      dxy     :     0.032592
  2 Cls       :     5.741686  s :     5.741686
      pz      :     3.882082  p :    11.202624
      px      :     3.402931
      py      :     3.917611
      dz2     :     0.014125  d :     0.077186
      dxz     :     0.016748
      dyz     :     0.011499
      dx2y2   :     0.019418
      dxy     :     0.015397
  3 Cls       :     5.953997  s :     5.953997
      pz      :     3.962578  p :    11.862266
      px      :     3.936545
      py      :     3.963143
      dz2     :     0.009754  d :     0.049650
      dxz     :     0.010078
      dyz     :     0.009687
      dx2y2   :     0.010027
      dxy     :     0.010104
  4 H s       :     0.866727  s :     0.866727
  5 H s       :     0.876146  s :     0.876146
  6 H s       :     0.915358  s :     0.915358
  7 C s       :     2.894891  s :     2.894891
      pz      :     1.093955  p :     3.311274
      px      :     1.137895
      py      :     1.079424
      dz2     :     0.035733  d :     0.122484
      dxz     :     0.011937
      dyz     :     0.021145
      dx2y2   :     0.028805
      dxy     :     0.024864
  8 H s       :     0.893519  s :     0.893519
  9 H s       :     0.897703  s :     0.897703
 10 H s       :     0.859250  s :     0.859250
 11 N s       :     3.209101  s :     3.209101
      pz      :     1.674349  p :     4.103345
      px      :     1.229359
      py      :     1.199637
      dz2     :     0.009156  d :     0.069594
      dxz     :     0.013901
      dyz     :     0.014672
      dx2y2   :     0.010416
      dxy     :     0.021447
 12 H s       :     0.798765  s :     0.798765
 13 H s       :     0.828643  s :     0.828643


                      *****************************
                      * MAYER POPULATION ANALYSIS *
                      *****************************

  NA   - Mulliken gross atomic population
  ZA   - Total nuclear charge
  QA   - Mulliken gross atomic charge
  VA   - Mayer's total valence
  BVA  - Mayer's bonded valence
  FA   - Mayer's free valence

  ATOM       NA         ZA         QA         VA         BVA        FA
  0 C      6.3193     6.0000    -0.3193     3.7862     3.4668     0.3195
  1 C      6.2653     6.0000    -0.2653     3.6853     3.4022     0.2831
  2 Cl    17.1938    17.0000    -0.1938     1.2339     0.8232     0.4107
  3 Cl    17.9100    17.0000    -0.9100     0.5205     0.1287     0.3919
  4 H      0.6893     1.0000     0.3107     0.8906     0.8536     0.0370
  5 H      0.7201     1.0000     0.2799     0.8916     0.8534     0.0382
  6 H      0.8223     1.0000     0.1777     0.9249     0.8848     0.0401
  7 C      6.6353     6.0000    -0.6353     3.7642     3.4903     0.2739
  8 H      0.7908     1.0000     0.2092     0.9110     0.8731     0.0379
  9 H      0.8024     1.0000     0.1976     0.9174     0.8789     0.0385
 10 H      0.7198     1.0000     0.2802     0.9017     0.8651     0.0366
 11 N      7.7846     7.0000    -0.7846     2.8726     2.5406     0.3320
 12 H      0.6609     1.0000     0.3391     0.8602     0.8214     0.0388
 13 H      0.6859     1.0000     0.3141     0.8607     0.8200     0.0408

  Mayer bond orders larger than 0.1
B(  0-C ,  1-C ) :   0.8949 B(  0-C ,  2-Cl) :   0.8787 B(  0-C ,  5-H ) :   0.8504 
B(  0-C ,  7-C ) :   0.9042 B(  1-C ,  4-H ) :   0.8169 B(  1-C ,  6-H ) :   0.9034 
B(  1-C , 11-N ) :   0.9000 B(  7-C ,  8-H ) :   0.9110 B(  7-C ,  9-H ) :   0.9060 
B(  7-C , 10-H ) :   0.8643 B( 11-N , 12-H ) :   0.8120 B( 11-N , 13-H ) :   0.8259 



----------------------------------
MP2 DERIVATIVE INTEGRAL GENERATION
----------------------------------


Input Wavefunction Amplitudes       ... run.mp2tsaa.tmp.proc0
Input Correlated Electron Density   ... run.pmp2re
Input Energy Weighted Density       ... run.wmp2.tmp
Input SCF Electron Density          ... run.scfp.tmp

One-Electron Terms    ...
                        ... One-Electron Terms done
Prescreening matrices              ... done

Batch handling in the gradient evaluation:
Memory available                      ... 5000.0 MB
Memory per occupied orbital in Q2     ...    5.7 MB
Memory per occupied orbital in Q3     ...    0.0 MB
Total memory requirement per |i>      ...    5.7 MB
Max. Number of orbitals possible      ...    875
Number of orbitals treated per batch  ...     34
Number of batches to be done          ...      1
Batch   0: i=    0 ...    33

---------------------------------------
MP2 TOTAL ENERGY:    -1092.873491319 Eh
---------------------------------------

-----------------------------------
NORM OF THE MP2 GRADIENT:  0.014972
-----------------------------------

-------------------------   --------------------
FINAL SINGLE POINT ENERGY     -1092.873491318701
-------------------------   --------------------

------------------------------------------------------------------------------
                         ORCA GEOMETRY RELAXATION STEP
------------------------------------------------------------------------------

Reading the OPT-File                    .... done
Getting information on internals        .... done
Copying old internal coords+grads       .... done
Making the new internal coordinates     .... (new redundants).... done
Validating the new internal coordinates .... (new redundants).... done
Calculating the B-matrix                .... done
Calculating the G,G- and P matrices     .... done
Transforming gradient to internals      .... done
Projecting the internal gradient        .... done
Number of atoms                         ....  14
Number of internal coordinates          ....  70
Current Energy                          .... -1092.873491319 Eh
Current gradient norm                   ....     0.014972393 Eh/bohr
Maximum allowed component of the step   ....  0.010
Current trust radius                    ....  0.100
Evaluating the initial hessian          .... done
Projecting the Hessian                  .... done
Forming the augmented Hessian           .... done
Diagonalizing the augmented Hessian     .... done
Last element of RFO vector              ....  0.992483096
Lowest eigenvalues of augmented Hessian:
 -0.002593472  0.100000000  0.100010500  0.101058983  0.102163269
Length of the computed step             ....  0.123308695
Warning: the length of the step is outside the trust region - taking restricted step instead
The input lambda is                     ....    -0.002593
   iter:   1  x=   -0.029440  g=    0.193878 f(x)=     0.005205
   iter:   2  x=   -0.038986  g=    0.118343 f(x)=     0.001130
   iter:   3  x=   -0.039815  g=    0.101358 f(x)=     0.000084
   iter:   4  x=   -0.039820  g=    0.100047 f(x)=     0.000001
   iter:   5  x=   -0.039820  g=    0.100038 f(x)=     0.000000
   iter:   6  x=   -0.039820  g=    0.100038 f(x)=     0.000000
The output lambda is                    ....    -0.039820 (6 iterations)
The final length of the internal step   ....  0.053696007
Converting the step to cartesian space:
 Initial RMS(Int)=    0.0064179003
Transforming coordinates:
 Iter   0:  RMS(Cart)=    0.0230870844 RMS(Int)=    0.0058775758
 Iter   1:  RMS(Cart)=    0.0002349565 RMS(Int)=    0.0001478348
 Iter   2:  RMS(Cart)=    0.0000056442 RMS(Int)=    0.0000020247
 Iter   3:  RMS(Cart)=    0.0000001499 RMS(Int)=    0.0000001093
 Iter   4:  RMS(Cart)=    0.0000000043 RMS(Int)=    0.0000000021
done
Storing new coordinates                 .... done

                                .--------------------.
          ----------------------|Geometry convergence|-------------------------
          Item                value                   Tolerance       Converged
          ---------------------------------------------------------------------
          RMS gradient        0.0026961430            0.0001000000      NO
          MAX gradient        0.0099255587            0.0003000000      NO
          RMS step            0.0064179003            0.0020000000      NO
          MAX step            0.0100000000            0.0040000000      NO
          ........................................................
          Max(Bonds)      0.0053      Max(Angles)    0.57
          Max(Dihed)        0.57      Max(Improp)    0.00
          ---------------------------------------------------------------------

The optimization has not yet converged - more geometry cycles are needed


    ---------------------------------------------------------------------------
                         Redundant Internal Coordinates
                            (Angstroem and degrees)

        Definition                    Value    dE/dq     Step     New-Value
    ----------------------------------------------------------------------------
     1. B(C   1,C   0)                1.5158 -0.004895  0.0049    1.5207   
     2. B(Cl  2,C   0)                1.8282 -0.001919  0.0019    1.8301   
     3. B(H   4,Cl  3)                2.2604 -0.007646  0.0053    2.2657   
     4. B(H   4,C   1)                1.0976  0.000373 -0.0000    1.0976   
     5. B(H   5,Cl  3)                2.8812 -0.000651  0.0003    2.8815   
     6. B(H   5,C   0)                1.0891 -0.000927  0.0006    1.0897   
     7. B(H   6,C   1)                1.0974  0.000158 -0.0002    1.0972   
     8. B(C   7,C   0)                1.5083 -0.001166  0.0011    1.5095   
     9. B(H   8,C   7)                1.0917 -0.000444  0.0004    1.0921   
    10. B(H   9,C   7)                1.0938  0.000122 -0.0001    1.0937   
    11. B(H  10,C   7)                1.0924  0.000071 -0.0001    1.0924   
    12. B(N  11,C   1)                1.4598 -0.004332  0.0042    1.4640   
    13. B(H  12,N  11)                1.0151  0.000109 -0.0001    1.0150   
    14. B(H  13,N  11)                1.0158  0.002888 -0.0028    1.0130   
    15. A(C   1,C   0,H   5)          108.36 -0.000125    0.10    108.46   
    16. A(H   5,C   0,C   7)          110.52 -0.001005    0.16    110.68   
    17. A(C   1,C   0,Cl  2)          108.84 -0.004538    0.57    109.42   
    18. A(Cl  2,C   0,C   7)          109.75  0.003097   -0.57    109.18   
    19. A(C   1,C   0,C   7)          113.77  0.002221   -0.57    113.20   
    20. A(Cl  2,C   0,H   5)          105.23  0.000091    0.04    105.27   
    21. A(H   4,C   1,N  11)          107.63  0.004920   -0.57    107.06   
    22. A(H   4,C   1,H   6)          111.75 -0.001342    0.15    111.90   
    23. A(H   6,C   1,N  11)          110.05  0.001590   -0.34    109.71   
    24. A(C   0,C   1,H   6)          109.47  0.002637   -0.57    108.90   
    25. A(C   0,C   1,N  11)          113.54 -0.009926    0.57    114.11   
    26. A(C   0,C   1,H   4)          104.30  0.002024   -0.53    103.77   
    27. A(H   4,Cl  3,H   5)           53.26  0.000206   -0.09     53.16   
    28. A(C   1,H   4,Cl  3)          139.07  0.000246    0.07    139.14   
    29. A(C   0,H   5,Cl  3)          106.26 -0.002049    0.31    106.56   
    30. A(H   9,C   7,H  10)          110.25  0.000223   -0.08    110.16   
    31. A(H   8,C   7,H  10)          109.04  0.000414   -0.10    108.94   
    32. A(C   0,C   7,H  10)          107.11  0.000103   -0.04    107.06   
    33. A(H   8,C   7,H   9)          108.37 -0.000088    0.05    108.42   
    34. A(C   0,C   7,H   9)          110.94  0.000273   -0.06    110.88   
    35. A(C   0,C   7,H   8)          111.13 -0.000914    0.23    111.36   
    36. A(H  12,N  11,H  13)          107.82  0.002107   -0.41    107.41   
    37. A(C   1,N  11,H  13)          106.88 -0.009025    0.57    107.45   
    38. A(C   1,N  11,H  12)          106.54  0.000919   -0.18    106.36   
    39. D(H   6,C   1,C   0,C   7)     55.81  0.000940   -0.22     55.58   
    40. D(N  11,C   1,C   0,Cl  2)     56.51 -0.004213    0.57     57.08   
    41. D(N  11,C   1,C   0,H   5)    -57.43 -0.001919    0.57    -56.86   
    42. D(H   6,C   1,C   0,H   5)    179.15  0.001075   -0.39    178.77   
    43. D(H   4,C   1,C   0,H   5)     59.44  0.000221    0.05     59.48   
    44. D(H   6,C   1,C   0,Cl  2)    -66.91 -0.001218    0.42    -66.49   
    45. D(N  11,C   1,C   0,C   7)    179.22 -0.002054    0.57    179.79   
    46. D(H   4,C   1,C   0,Cl  2)    173.38 -0.002073    0.57    173.95   
    47. D(H   4,C   1,C   0,C   7)    -63.91  0.000086    0.21    -63.70   
    48. D(Cl  3,H   4,C   1,N  11)     78.59 -0.004438    0.57     79.17   
    49. D(Cl  3,H   4,C   1,H   6)   -160.47 -0.000063   -0.10   -160.57   
    50. D(Cl  3,H   4,C   1,C   0)    -42.30  0.003588   -0.57    -42.88   
    51. D(C   1,H   4,Cl  3,H   5)     16.13 -0.004053    0.57     16.70   
    52. D(Cl  3,H   5,C   0,Cl  2)   -164.65  0.004468   -0.57   -165.22   
    53. D(Cl  3,H   5,C   0,C   1)    -48.35 -0.000776    0.22    -48.13   
    54. D(C   0,H   5,Cl  3,H   4)     25.72  0.001558   -0.50     25.21   
    55. D(Cl  3,H   5,C   0,C   7)     76.94  0.001264   -0.43     76.51   
    56. D(H  10,C   7,C   0,H   5)    -61.42  0.000301   -0.08    -61.50   
    57. D(H  10,C   7,C   0,Cl  2)   -177.04 -0.001047    0.33   -176.71   
    58. D(H  10,C   7,C   0,C   1)     60.75  0.000974   -0.30     60.44   
    59. D(H   9,C   7,C   0,H   5)    178.22 -0.000194    0.08    178.30   
    60. D(H   9,C   7,C   0,Cl  2)     62.60 -0.001542    0.49     63.09   
    61. D(H   9,C   7,C   0,C   1)    -59.62  0.000479   -0.14    -59.75   
    62. D(H   8,C   7,C   0,H   5)     57.59  0.000348   -0.10     57.49   
    63. D(H   8,C   7,C   0,Cl  2)    -58.04 -0.001000    0.31    -57.72   
    64. D(H   8,C   7,C   0,C   1)    179.75  0.001021   -0.32    179.43   
    65. D(H  13,N  11,C   1,C   0)    -35.31  0.001994   -0.57    -35.88   
    66. D(H  12,N  11,C   1,H   6)   -157.14 -0.001887    0.57   -156.57   
    67. D(H  12,N  11,C   1,H   4)    -35.14  0.000524   -0.24    -35.38   
    68. D(H  13,N  11,C   1,H   4)   -150.21  0.001915   -0.57   -150.79   
    69. D(H  12,N  11,C   1,C   0)     79.76  0.000603   -0.22     79.54   
    70. D(H  13,N  11,C   1,H   6)     87.79 -0.000496    0.16     87.95   
    ----------------------------------------------------------------------------

         *************************************************************
         *                GEOMETRY OPTIMIZATION CYCLE   2            *
         *************************************************************
---------------------------------
CARTESIAN COORDINATES (ANGSTROEM)
---------------------------------
  C     -0.125157   -0.094413   -0.242709
  C     -0.206179   -0.141376    1.274942
  Cl     1.610828    0.169962   -0.758201
  Cl    -3.205896    0.774049    0.767094
  H     -1.282827   -0.186912    1.482948
  H     -0.663914    0.786558   -0.590047
  H      0.316131   -1.035335    1.638231
  C     -0.659931   -1.339498   -0.907774
  H     -0.594341   -1.268816   -1.995649
  H     -0.103136   -2.223694   -0.584736
  H     -1.710073   -1.430258   -0.621009
  N      0.311510    1.049372    1.951316
  H     -0.417345    1.753379    1.893428
  H      1.105545    1.383130    1.418101

----------------------------
CARTESIAN COORDINATES (A.U.)
----------------------------
  NO LB      ZA    FRAG     MASS         X           Y           Z
   0 C     6.0000    0    12.011   -0.236513   -0.178416   -0.458654
   1 C     6.0000    0    12.011   -0.389621   -0.267161    2.409290
   2 Cl   17.0000    0    35.453    3.044024    0.321181   -1.432793
   3 Cl   17.0000    0    35.453   -6.058266    1.462740    1.449598
   4 H     1.0000    0     1.008   -2.424191   -0.353212    2.802366
   5 H     1.0000    0     1.008   -1.254616    1.486380   -1.115028
   6 H     1.0000    0     1.008    0.597401   -1.956501    3.095808
   7 C     6.0000    0    12.011   -1.247088   -2.531284   -1.715445
   8 H     1.0000    0     1.008   -1.123141   -2.397715   -3.771230
   9 H     1.0000    0     1.008   -0.194899   -4.202173   -1.104991
  10 H     1.0000    0     1.008   -3.231570   -2.702796   -1.173537
  11 N     7.0000    0    14.007    0.588668    1.983026    3.687453
  12 H     1.0000    0     1.008   -0.788668    3.313405    3.578061
  13 H     1.0000    0     1.008    2.089177    2.613737    2.679823

--------------------------------
INTERNAL COORDINATES (ANGSTROEM)
--------------------------------
 C      0   0   0     0.000000000000     0.00000000     0.00000000
 C      1   0   0     1.520537516705     0.00000000     0.00000000
 Cl     1   2   0     1.830101588390   109.64219890     0.00000000
 Cl     2   1   3     3.177139975600    83.21576741   155.15569937
 H      2   1   3     1.097502353844   104.04719339   173.82069743
 H      1   2   3     1.089501610463   108.47095588   245.60454973
 H      2   1   3     1.097246974884   109.28467026   293.29812327
 C      1   2   3     1.509479878746   113.29109841   122.43928095
 H      8   1   2     1.092139801483   111.35910800   179.52949338
 H      8   1   2     1.093698630543   110.87600568   300.34283761
 H      8   1   2     1.092369679154   107.06470337    60.54057774
 N      2   1   3     1.464022924678   114.65528968    57.25296808
 H     12   2   1     1.014990363925   106.49127452    79.52050916
 H     12   2   1     1.013017481489   107.57538765   324.26300467

---------------------------
INTERNAL COORDINATES (A.U.)
---------------------------
 C      0   0   0     0.000000000000     0.00000000     0.00000000
 C      1   0   0     2.873399482926     0.00000000     0.00000000
 Cl     1   2   0     3.458390799312   109.64219890     0.00000000
 Cl     2   1   3     6.003924443017    83.21576741   155.15569937
 H      2   1   3     2.073978880099   104.04719339   173.82069743
 H      1   2   3     2.058859666241   108.47095588   245.60454973
 H      2   1   3     2.073496283805   109.28467026   293.29812327
 C      1   2   3     2.852503575494   113.29109841   122.43928095
 H      8   1   2     2.063845124759   111.35910800   179.52949338
 H      8   1   2     2.066790884770   110.87600568   300.34283761
 H      8   1   2     2.064279530601   107.06470337    60.54057774
 N      2   1   3     2.766602381424   114.65528968    57.25296808
 H     12   2   1     1.918053816387   106.49127452    79.52050916
 H     12   2   1     1.914325608889   107.57538765   324.26300467


Diagonalization of the overlap matrix:
Smallest eigenvalue                        ... 2.409e-03
Time for diagonalization                   ...    0.004 sec
Threshold for overlap eigenvalues          ... 1.000e-08
Number of eigenvalues below threshold      ... 0
Time for construction of square roots      ...    0.001 sec
Total time needed                          ...    0.006 sec

--------------
SCF ITERATIONS
--------------
ITER       Energy         Delta-E        Max-DP      RMS-DP      [F,P]     Damp
               ***  Starting incremental Fock matrix formation  ***
                      *** Initiating the SOSCF procedure ***
                      *** Re-Reading the Fockian *** 
                      *** Removing any level shift *** 
ITER      Energy       Delta-E        Grad      Rot      Max-DP    RMS-DP
  0  -1091.82531411 -1091.8253141108  0.002223  0.002223  0.004972  0.000165
               *** Restarting incremental Fock matrix formation ***
  1  -1091.82567011  -0.0003560037  0.001058  0.001308  0.003798  0.000093
  2  -1091.82573737  -0.0000672514  0.000379  0.000965  0.002409  0.000058
  3  -1091.82574756  -0.0000101915  0.000069  0.000138  0.000238  0.000008
  4  -1091.82574781  -0.0000002525  0.000027  0.000052  0.000064  0.000003
  5  -1091.82574787  -0.0000000596  0.000011  0.000030  0.000042  0.000001
  6  -1091.82574787  -0.0000000045  0.000002  0.000006  0.000007  0.000000
  7  -1091.82574787  -0.0000000003  0.000001  0.000001  0.000003  0.000000
  8  -1091.82574787  -0.0000000000  0.000000  0.000000  0.000001  0.000000
  9  -1091.82574787  -0.0000000000  0.000000  0.000000  0.000000  0.000000
 10  -1091.82574787  -0.0000000000  0.000000  0.000000  0.000000  0.000000
 11  -1091.82574787  -0.0000000000  0.000000  0.000000  0.000000  0.000000
[...]
      dyz     :     0.011235
      dx2y2   :     0.018733
      dxy     :     0.014335
  3 Cls       :     5.983945  s :     5.983945
      pz      :     3.972224  p :    11.915092
      px      :     3.967035
      py      :     3.975833
      dz2     :     0.009619  d :     0.048470
      dxz     :     0.009766
      dyz     :     0.009577
      dx2y2   :     0.009768
      dxy     :     0.009740
  4 H s       :     0.752034  s :     0.752034
  5 H s       :     0.680033  s :     0.680033
  6 H s       :     0.820096  s :     0.820096
  7 C s       :     3.340613  s :     3.340613
      pz      :     1.086395  p :     3.166681
      px      :     1.105485
      py      :     0.974801
      dz2     :     0.027771  d :     0.090889
      dxz     :     0.010459
      dyz     :     0.013272
      dx2y2   :     0.021191
      dxy     :     0.018195
  8 H s       :     0.789932  s :     0.789932
  9 H s       :     0.813412  s :     0.813412
 10 H s       :     0.745934  s :     0.745934
 11 N s       :     3.692896  s :     3.692896
      pz      :     1.746469  p :     4.093707
      px      :     1.220229
      py      :     1.127009
      dz2     :     0.007560  d :     0.056036
      dxz     :     0.011037
      dyz     :     0.013126
      dx2y2   :     0.007671
      dxy     :     0.016643
 12 H s       :     0.613179  s :     0.613179
 13 H s       :     0.689059  s :     0.689059


                     *******************************
                     * LOEWDIN POPULATION ANALYSIS *
                     *******************************

----------------------
LOEWDIN ATOMIC CHARGES
----------------------
   0 C :   -0.209519
   1 C :   -0.180975
   2 Cl:   -0.049633
   3 Cl:   -0.900787
   4 H :    0.115751
   5 H :    0.129046
   6 H :    0.078363
   7 C :   -0.291320
   8 H :    0.100588
   9 H :    0.092320
  10 H :    0.125511
  11 N :   -0.388096
  12 H :    0.202728
  13 H :    0.176021

-------------------------------
LOEWDIN REDUCED ORBITAL CHARGES
-------------------------------
  0 C s       :     2.895686  s :     2.895686
      pz      :     1.084958  p :     3.104238
      px      :     0.890075
      py      :     1.129204
      dz2     :     0.052157  d :     0.209595
      dxz     :     0.038272
      dyz     :     0.033911
      dx2y2   :     0.042543
      dxy     :     0.042713
  1 C s       :     2.850980  s :     2.850980
      pz      :     1.013212  p :     3.115748
      px      :     1.097553
      py      :     1.004983
      dz2     :     0.068333  d :     0.214246
      dxz     :     0.020634
      dyz     :     0.049758
      dx2y2   :     0.032861
      dxy     :     0.042659
  2 Cls       :     5.736749  s :     5.736749
      pz      :     3.865464  p :    11.234333
      px      :     3.451102
      py      :     3.917767
      dz2     :     0.014068  d :     0.078550
      dxz     :     0.017905
      dyz     :     0.011518
      dx2y2   :     0.019772
      dxy     :     0.015288
  3 Cls       :     5.966026  s :     5.966026
      pz      :     3.967217  p :    11.886043
      px      :     3.947119
      py      :     3.971707
      dz2     :     0.009630  d :     0.048717
      dxz     :     0.009871
      dyz     :     0.009608
      dx2y2   :     0.009816
      dxy     :     0.009793
  4 H s       :     0.884249  s :     0.884249
  5 H s       :     0.870954  s :     0.870954
  6 H s       :     0.921637  s :     0.921637
  7 C s       :     2.892067  s :     2.892067
      pz      :     1.086727  p :     3.265150
      px      :     1.110271
      py      :     1.068152
      dz2     :     0.039171  d :     0.134103
      dxz     :     0.013383
      dyz     :     0.021918
      dx2y2   :     0.031959
      dxy     :     0.027673
  8 H s       :     0.899412  s :     0.899412
  9 H s       :     0.907680  s :     0.907680
 10 H s       :     0.874489  s :     0.874489
 11 N s       :     3.206778  s :     3.206778
      pz      :     1.703741  p :     4.109276
      px      :     1.214678
      py      :     1.190857
      dz2     :     0.008730  d :     0.072042
      dxz     :     0.011593
      dyz     :     0.018097
      dx2y2   :     0.011381
      dxy     :     0.022240
 12 H s       :     0.797272  s :     0.797272
 13 H s       :     0.823979  s :     0.823979


                      *****************************
                      * MAYER POPULATION ANALYSIS *
                      *****************************

  NA   - Mulliken gross atomic population
  ZA   - Total nuclear charge
  QA   - Mulliken gross atomic charge
  VA   - Mayer's total valence
  BVA  - Mayer's bonded valence
  FA   - Mayer's free valence

  ATOM       NA         ZA         QA         VA         BVA        FA
  0 C      6.2829     6.0000    -0.2829     3.6545     3.3294     0.3251
  1 C      6.1883     6.0000    -0.1883     3.7315     3.4458     0.2857
  2 Cl    17.2368    17.0000    -0.2368     1.1831     0.7681     0.4150
  3 Cl    17.9475    17.0000    -0.9475     0.4649     0.0718     0.3931
  4 H      0.7520     1.0000     0.2480     0.9076     0.8687     0.0389
  5 H      0.6800     1.0000     0.3200     0.8626     0.8241     0.0385
  6 H      0.8201     1.0000     0.1799     0.9172     0.8762     0.0410
  7 C      6.5982     6.0000    -0.5982     3.7740     3.4959     0.2781
  8 H      0.7899     1.0000     0.2101     0.9115     0.8731     0.0384
  9 H      0.8134     1.0000     0.1866     0.9199     0.8805     0.0394
 10 H      0.7459     1.0000     0.2541     0.9031     0.8655     0.0376
 11 N      7.8426     7.0000    -0.8426     2.7951     2.4597     0.3354
 12 H      0.6132     1.0000     0.3868     0.8350     0.7966     0.0384
 13 H      0.6891     1.0000     0.3109     0.8651     0.8240     0.0410

  Mayer bond orders larger than 0.1
B(  0-C ,  1-C ) :   0.8632 B(  0-C ,  2-Cl) :   0.8545 B(  0-C ,  5-H ) :   0.8348 
B(  0-C ,  7-C ) :   0.8807 B(  1-C ,  4-H ) :   0.8903 B(  1-C ,  6-H ) :   0.9111 
B(  1-C , 11-N ) :   0.8827 B(  7-C ,  8-H ) :   0.9170 B(  7-C ,  9-H ) :   0.9127 
B(  7-C , 10-H ) :   0.8871 B( 11-N , 12-H ) :   0.7738 B( 11-N , 13-H ) :   0.8333 



                *******************************************
                * RELAXED MP2 DENSITY POPULATION ANALYSIS *
                *******************************************

------------------------------------------------------------------------------
                           ORCA POPULATION ANALYSIS
------------------------------------------------------------------------------
Input electron density              ... run.pmp2re
BaseName (.gbw .S,...)              ... run

                    ********************************
                    * MULLIKEN POPULATION ANALYSIS *
                    ********************************

-----------------------
MULLIKEN ATOMIC CHARGES
-----------------------
   0 C :   -0.314533
   1 C :   -0.254270
   2 Cl:   -0.186013
   3 Cl:   -0.922374
   4 H :    0.253237
   5 H :    0.312827
   6 H :    0.186899
   7 C :   -0.638919
   8 H :    0.216894
   9 H :    0.196314
  10 H :    0.261609
  11 N :   -0.786229
  12 H :    0.371374
  13 H :    0.303185
Sum of atomic charges:   -1.0000000

--------------------------------
MULLIKEN REDUCED ORBITAL CHARGES
--------------------------------
  0 C s       :     3.325608  s :     3.325608
      pz      :     0.973374  p :     2.881151
      px      :     0.780045
      py      :     1.127733
      dz2     :     0.024533  d :     0.107774
      dxz     :     0.020061
      dyz     :     0.018413
      dx2y2   :     0.021075
      dxy     :     0.023692
  1 C s       :     3.223851  s :     3.223851
      pz      :     0.852858  p :     2.920717
      px      :     1.152473
      py      :     0.915387
      dz2     :     0.030906  d :     0.109702
      dxz     :     0.012910
      dyz     :     0.023490
      dx2y2   :     0.017119
      dxy     :     0.025277
  2 Cls       :     5.953773  s :     5.953773
      pz      :     3.870125  p :    11.159623
      px      :     3.365598
      py      :     3.923899
      dz2     :     0.013259  d :     0.072617
      dxz     :     0.016271
      dyz     :     0.011288
      dx2y2   :     0.017291
      dxy     :     0.014508
  3 Cls       :     5.981998  s :     5.981998
      pz      :     3.965355  p :    11.891877
      px      :     3.956025
      py      :     3.970497
      dz2     :     0.009620  d :     0.048499
      dxz     :     0.009778
      dyz     :     0.009578
      dx2y2   :     0.009778
      dxy     :     0.009745
  4 H s       :     0.746763  s :     0.746763
  5 H s       :     0.687173  s :     0.687173
  6 H s       :     0.813101  s :     0.813101
  7 C s       :     3.331008  s :     3.331008
      pz      :     1.102661  p :     3.228686
      px      :     1.128910
      py      :     0.997115
      dz2     :     0.023907  d :     0.079224
      dxz     :     0.009298
      dyz     :     0.011733
      dx2y2   :     0.018480
      dxy     :     0.015807
  8 H s       :     0.783106  s :     0.783106
  9 H s       :     0.803686  s :     0.803686
 10 H s       :     0.738391  s :     0.738391
 11 N s       :     3.663641  s :     3.663641
      pz      :     1.731680  p :     4.070411
      px      :     1.215983
      py      :     1.122749
      dz2     :     0.007665  d :     0.052177
      dxz     :     0.010419
      dyz     :     0.012125
      dx2y2   :     0.006846
      dxy     :     0.015122
 12 H s       :     0.628626  s :     0.628626
 13 H s       :     0.696815  s :     0.696815


                     *******************************
                     * LOEWDIN POPULATION ANALYSIS *
                     *******************************

----------------------
LOEWDIN ATOMIC CHARGES
----------------------
   0 C :   -0.238897
   1 C :   -0.213154
   2 Cl:   -0.018741
   3 Cl:   -0.886760
   4 H :    0.124028
   5 H :    0.130564
   6 H :    0.086797
   7 C :   -0.326005
   8 H :    0.109009
   9 H :    0.101533
  10 H :    0.134574
  11 N :   -0.383139
  12 H :    0.201648
  13 H :    0.178542

-------------------------------
LOEWDIN REDUCED ORBITAL CHARGES
-------------------------------
  0 C s       :     2.901002  s :     2.901002
      pz      :     1.086388  p :     3.135758
      px      :     0.916607
      py      :     1.132763
      dz2     :     0.049894  d :     0.202136
      dxz     :     0.037572
      dyz     :     0.033517
      dx2y2   :     0.040084
      dxy     :     0.041069
  1 C s       :     2.856591  s :     2.856591
      pz      :     1.025421  p :     3.152912
      px      :     1.111685
      py      :     1.015806
      dz2     :     0.064815  d :     0.203652
      dxz     :     0.020568
      dyz     :     0.048374
      dx2y2   :     0.030386
      dxy     :     0.039508
  2 Cls       :     5.742806  s :     5.742806
      pz      :     3.857927  p :    11.198680
      px      :     3.427079
      py      :     3.913673
      dz2     :     0.013969  d :     0.077256
      dxz     :     0.017530
      dyz     :     0.011585
      dx2y2   :     0.018662
      dxy     :     0.015510
  3 Cls       :     5.965684  s :     5.965684
      pz      :     3.963417  p :    11.872317
      px      :     3.940177
      py      :     3.968723
      dz2     :     0.009631  d :     0.048758
      dxz     :     0.009886
      dyz     :     0.009610
      dx2y2   :     0.009831
      dxy     :     0.009800
  4 H s       :     0.875972  s :     0.875972
  5 H s       :     0.869436  s :     0.869436
  6 H s       :     0.913203  s :     0.913203
  7 C s       :     2.895909  s :     2.895909
      pz      :     1.099588  p :     3.307155
      px      :     1.125882
      py      :     1.081684
      dz2     :     0.035503  d :     0.122941
      dxz     :     0.012326
      dyz     :     0.020486
      dx2y2   :     0.029337
      dxy     :     0.025289
  8 H s       :     0.890991  s :     0.890991
  9 H s       :     0.898467  s :     0.898467
 10 H s       :     0.865426  s :     0.865426
 11 N s       :     3.205193  s :     3.205193
      pz      :     1.694357  p :     4.109083
      px      :     1.220903
      py      :     1.193823
      dz2     :     0.008837  d :     0.068863
      dxz     :     0.011137
      dyz     :     0.017238
      dx2y2   :     0.010668
      dxy     :     0.020982
 12 H s       :     0.798352  s :     0.798352
 13 H s       :     0.821458  s :     0.821458


                      *****************************
                      * MAYER POPULATION ANALYSIS *
                      *****************************

  NA   - Mulliken gross atomic population
  ZA   - Total nuclear charge
  QA   - Mulliken gross atomic charge
  VA   - Mayer's total valence
  BVA  - Mayer's bonded valence
  FA   - Mayer's free valence

  ATOM       NA         ZA         QA         VA         BVA        FA
  0 C      6.3145     6.0000    -0.3145     3.7274     3.4089     0.3185
  1 C      6.2543     6.0000    -0.2543     3.7906     3.5084     0.2822
  2 Cl    17.1860    17.0000    -0.1860     1.2414     0.8318     0.4096
  3 Cl    17.9224    17.0000    -0.9224     0.5111     0.1212     0.3899
  4 H      0.7468     1.0000     0.2532     0.9100     0.8722     0.0378
  5 H      0.6872     1.0000     0.3128     0.8777     0.8404     0.0373
  6 H      0.8131     1.0000     0.1869     0.9161     0.8760     0.0401
  7 C      6.6389     6.0000    -0.6389     3.7818     3.5071     0.2748
  8 H      0.7831     1.0000     0.2169     0.9088     0.8712     0.0376
  9 H      0.8037     1.0000     0.1963     0.9175     0.8790     0.0386
 10 H      0.7384     1.0000     0.2616     0.9027     0.8660     0.0367
 11 N      7.7862     7.0000    -0.7862     2.8689     2.5384     0.3305
 12 H      0.6286     1.0000     0.3714     0.8518     0.8139     0.0378
 13 H      0.6968     1.0000     0.3032     0.8701     0.8294     0.0406

  Mayer bond orders larger than 0.1
B(  0-C ,  1-C ) :   0.8813 B(  0-C ,  2-Cl) :   0.8840 B(  0-C ,  5-H ) :   0.8277 
B(  0-C ,  7-C ) :   0.8984 B(  1-C ,  4-H ) :   0.8773 B(  1-C ,  6-H ) :   0.9009 
B(  1-C , 11-N ) :   0.9349 B(  7-C ,  8-H ) :   0.9093 B(  7-C ,  9-H ) :   0.9064 
B(  7-C , 10-H ) :   0.8783 B( 11-N , 12-H ) :   0.7757 B( 11-N , 13-H ) :   0.8332 



----------------------------------
MP2 DERIVATIVE INTEGRAL GENERATION
----------------------------------


Input Wavefunction Amplitudes       ... run.mp2tsaa.tmp.proc0
Input Correlated Electron Density   ... run.pmp2re
Input Energy Weighted Density       ... run.wmp2.tmp
Input SCF Electron Density          ... run.scfp.tmp

One-Electron Terms    ...
                        ... One-Electron Terms done
Prescreening matrices              ... done

Batch handling in the gradient evaluation:
Memory available                      ... 5000.0 MB
Memory per occupied orbital in Q2     ...    5.7 MB
Memory per occupied orbital in Q3     ...    0.0 MB
Total memory requirement per |i>      ...    5.7 MB
Max. Number of orbitals possible      ...    875
Number of orbitals treated per batch  ...     34
Number of batches to be done          ...      1
Batch   0: i=    0 ...    33

---------------------------------------
MP2 TOTAL ENERGY:    -1092.880161868 Eh
---------------------------------------

-----------------------------------
NORM OF THE MP2 GRADIENT:  0.000225
-----------------------------------

-------------------------   --------------------
FINAL SINGLE POINT ENERGY     -1092.880161867643
-------------------------   --------------------

                                *** OPTIMIZATION RUN DONE ***

                            ***************************************
                            *     ORCA property calculations      *
                            ***************************************

                                    ---------------------
                                    Active property flags
                                    ---------------------
   (+) Dipole Moment


------------------------------------------------------------------------------
                       ORCA ELECTRIC PROPERTIES CALCULATION
------------------------------------------------------------------------------

Dipole Moment Calculation                       ... on
Quadrupole Moment Calculation                   ... off
Polarizability Calculation                      ... off
GBWName                                         ... run.gbw
Electron density file                           ... run.scfp.tmp
The origin for moment calculation is the CENTER OF MASS  = (-0.945617,  0.719119  0.353499)

-------------
DIPOLE MOMENT
-------------
                                X             Y             Z
Electronic contribution:      1.65497       4.86084      -3.00927
Nuclear contribution   :      1.21708      -6.61221       2.07778
                        -----------------------------------------
Total Dipole Moment    :      2.87205      -1.75136      -0.93149
                        -----------------------------------------
Magnitude (a.u.)       :      3.49050
Magnitude (Debye)      :      8.87216


                         *** MP2 UNRELAXED DENSITY ***

------------------------------------------------------------------------------
                       ORCA ELECTRIC PROPERTIES CALCULATION
------------------------------------------------------------------------------

Dipole Moment Calculation                       ... on
Quadrupole Moment Calculation                   ... off
Polarizability Calculation                      ... off
GBWName                                         ... run.gbw
Electron density file                           ... run.pmp2ur
The origin for moment calculation is the CENTER OF MASS  = (-0.945617,  0.719119  0.353499)

-------------
DIPOLE MOMENT
-------------
                                X             Y             Z
Electronic contribution:      1.66314       4.87285      -3.00947
Nuclear contribution   :      1.21708      -6.61221       2.07778
                        -----------------------------------------
Total Dipole Moment    :      2.88022      -1.73936      -0.93169
                        -----------------------------------------
Magnitude (a.u.)       :      3.49129
Magnitude (Debye)      :      8.87415


                           *** MP2 RELAXED DENSITY ***

------------------------------------------------------------------------------
                       ORCA ELECTRIC PROPERTIES CALCULATION
------------------------------------------------------------------------------

Dipole Moment Calculation                       ... on
Quadrupole Moment Calculation                   ... off
Polarizability Calculation                      ... off
GBWName                                         ... run.gbw
Electron density file                           ... run.pmp2re
The origin for moment calculation is the CENTER OF MASS  = (-0.945617,  0.719119  0.353499)

-------------
DIPOLE MOMENT
-------------
                                X             Y             Z
Electronic contribution:      1.67925       4.94756      -3.03102
Nuclear contribution   :      1.21708      -6.61221       2.07778
                        -----------------------------------------
Total Dipole Moment    :      2.89633      -1.66465      -0.95324
                        -----------------------------------------
Magnitude (a.u.)       :      3.47396
Magnitude (Debye)      :      8.83011


Timings for individual modules:

Sum of individual times         ...    21367.897 sec (= 356.132 min)
GTO integral calculation        ...       43.608 sec (=   0.727 min)   0.2 %
SCF iterations                  ...     7227.952 sec (= 120.466 min)  33.8 %
MP2 module                      ...    14085.816 sec (= 234.764 min)  65.9 %
Geometry relaxation             ...       10.521 sec (=   0.175 min)   0.0 %
                             ****ORCA TERMINATED NORMALLY****
TOTAL RUN TIME: 0 days 5 hours 56 minutes 15 seconds 762 msec
