
                                 *****************
                                 * O   R   C   A *
                                 *****************

           --- An Ab Initio, DFT and Semiempirical electronic structure package ---

                  #######################################################
                  #                        -***-                        #
                  #  Department of molecular theory and spectroscopy    #
                  #              Directorship: Frank Neese              #
                  # Max Planck Institute for Chemical Energy Conversion #
                  #                  D-45470 Muelheim/Ruhr              #
                  #                       Germany                       #
                  #                                                     #
                  #                  All rights reserved                #
                  #                        -***-                        #
                  #######################################################


                         Program Version 4.0.1.2 - RELEASE -


 With contributions from (in alphabetic order):
   Daniel Aravena         : Magnetic Properties
   Michael Atanasov       : Ab Initio Ligand Field Theory
   Ute Becker             : Parallelization
   Martin Brehm           : Molecular dynamics
   Dmytro Bykov           : SCF Hessian
   Vijay G. Chilkuri      : MRCI spin determinant printing
   Dipayan Datta          : RHF DLPNO-CCSD density
   Achintya Kumar Dutta   : EOM-CC, STEOM-CC
   Dmitry Ganyushin       : Spin-Orbit,Spin-Spin,Magnetic field MRCI
   Yang Guo               : DLPNO-NEVPT2, CIM, IAO-localization
   Andreas Hansen         : Spin unrestricted coupled pair/coupled cluster methods
   Lee Huntington         : MR-EOM, pCC
   Robert Izsak           : Overlap fitted RIJCOSX, COSX-SCS-MP3, EOM
   Christian Kollmar      : KDIIS, OOCD, Brueckner-CCSD(T), CCSD density
   Simone Kossmann        : Meta GGA functionals, TD-DFT gradient, OOMP2, MP2 Hessian
   Martin Krupicka        : AUTO-CI
   Dagmar Lenk            : GEPOL surface
   Dimitrios Liakos       : Extrapolation schemes; parallel MDCI
   Dimitrios Manganas     : ROCIS; embedding schemes
   Dimitrios Pantazis     : SARC Basis sets
   Taras Petrenko         : DFT Hessian,TD-DFT gradient, ASA, ECA, R-Raman, ABS, FL, XAS/XES, NRVS
   Peter Pinski           : DLPNO-MP2
   Christoph Reimann      : Effective Core Potentials
   Marius Retegan         : Local ZFS, SOC
   Christoph Riplinger    : Optimizer, TS searches, QM/MM, DLPNO-CCSD(T), (RO)-DLPNO pert. Triples
   Tobias Risthaus        : Range-separated hybrids, TD-DFT gradient, RPA, STAB
   Michael Roemelt        : Restricted open shell CIS
   Masaaki Saitow         : Open-shell DLPNO
   Barbara Sandhoefer     : DKH picture change effects
   Kantharuban Sivalingam : CASSCF convergence, NEVPT2, FIC-MRCI
   Georgi Stoychev        : AutoAux
   Boris Wezisla          : Elementary symmetry handling
   Frank Wennmohs         : Technical directorship


 We gratefully acknowledge several colleagues who have allowed us to
 interface, adapt or use parts of their codes:
   Stefan Grimme, W. Hujo, H. Kruse,             : VdW corrections, initial TS optimization,
                  C. Bannwarth                     DFT functionals, gCP, sTDA/sTD-DF
   Ed Valeev                                     : LibInt (2-el integral package), F12 methods
   Garnet Chan, S. Sharma, J. Yang, R. Olivares  : DMRG
   Ulf Ekstrom                                   : XCFun DFT Library
   Mihaly Kallay                                 : mrcc  (arbitrary order and MRCC methods)
   Andreas Klamt, Michael Diedenhofen            : otool_cosmo (COSMO solvation model)
   Jiri Pittner, Ondrej Demel                    : Mk-CCSD
   Frank Weinhold                                : gennbo (NPA and NBO analysis)
   Christopher J. Cramer and Donald G. Truhlar   : smd solvation model


 Your calculation uses the libint2 library for the computation of 2-el integrals
 For citations please refer to: http://libint.valeyev.net

 This ORCA versions uses:
   CBLAS   interface :  Fast vector & matrix operations
   LAPACKE interface :  Fast linear algebra routines
   SCALAPACK package :  Parallel linear algebra routines




*****************************************
The coordinations will be read from file: inp.xyz
*****************************************


Your calculation utilizes the basis: 6-311G(d)
   H, Li - Ne  : R. Krishnan, J. S. Binkley, R. Seeger and J. A. Pople, J. Chem. Phys. 72, 650 (1980).
   Na - Ar     : A. D. McLean and G. S. Chandler J. Chem. Phys. 72, 5639, (1980).
   K  - Ca     : J.-P. Blaudeau, M. P. McGrath, L. A. Curtiss and L. Radom, J. Chem. Phys. 107, 5016 (1997).
   Ga - Kr     : L. A. Curtiss, M. P. McGrath, J.-P. Blandeau, N. E. Davis, R. C. Binning and L. Radom, J. Chem. Phys. 103, 6104 (1995).
   Pol./Diff.
   H, Li - Cl  : T. Clark, J. Chandrasekhar and P. v. R. Schleyer, J. Comp. Chem. 4, 294 (1983).
   H - Ne      : M. J. Frisch, J. A. Pople and J. S. Binkley, J. Chem. Phys. 80, 3265 (1984).

================================================================================
                                        WARNINGS
                       Please study these warnings very carefully!
================================================================================

Warning: TCutStore was < 0. Adjusted to Thresh (uncritical)

WARNING: TCut can not be >=Thresh
  ===> : TCut is set to 0.01*Thresh

WARNING: Geometry Optimization
  ===> : Switching off AutoStart
         For restart on a previous wavefunction, please use MOREAD

WARNING: Post HF methods need fully converged wavefunctions
  ===> : Setting SCFConvForced true
         You can overwrite this default with %scf ConvForced false 


INFO   : the flag for use of LIBINT has been found!

================================================================================
                                       INPUT FILE
================================================================================
NAME = run.inp
|  1> ! MP2 6-311G(d) Opt NoFrozenCore ExtremeSCF
|  2> 
|  3> %pal nprocs 1
|  4> end
|  5> 
|  6> %mp2 MaxCore 5000
|  7> end
|  8> 
|  9> *xyzfile 0 1 inp.xyz
| 10> 
| 11>                          ****END OF INPUT****
================================================================================

                       *****************************
                       * Geometry Optimization Run *
                       *****************************

Geometry optimization settings:
Update method            Update   .... BFGS
Choice of coordinates    CoordSys .... Redundant Internals
Initial Hessian          InHess   .... Almoef's Model

Convergence Tolerances:
Energy Change            TolE     ....  5.0000e-06 Eh
Max. Gradient            TolMAXG  ....  3.0000e-04 Eh/bohr
RMS Gradient             TolRMSG  ....  1.0000e-04 Eh/bohr
Max. Displacement        TolMAXD  ....  4.0000e-03 bohr
RMS Displacement         TolRMSD  ....  2.0000e-03 bohr

------------------------------------------------------------------------------
                        ORCA OPTIMIZATION COORDINATE SETUP
------------------------------------------------------------------------------

The optimization will be done in new redundant internal coordinates
Making redundant internal coordinates   ...  (new redundants) done
Evaluating the initial hessian          ...  (Almloef) done
Evaluating the coordinates              ...  done
Calculating the B-matrix                .... done
Calculating the G-matrix                .... done
Diagonalizing the G-matrix              .... done
The first mode is                       ....   12
The number of degrees of freedom        ....   27

    -----------------------------------------------------------------
                    Redundant Internal Coordinates


    -----------------------------------------------------------------
         Definition                    Initial Value    Approx d2E/dq
    -----------------------------------------------------------------
      1. B(C   1,C   0)                  1.3611         0.694805   
      2. B(H   2,C   0)                  1.0891         0.361292   
      3. B(H   3,C   1)                  1.0939         0.354951   
      4. B(C   4,C   0)                  1.5033         0.412130   
      5. B(H   5,C   4)                  1.0962         0.351994   
      6. B(H   6,C   4)                  1.0950         0.353592   
      7. B(H   7,C   4)                  1.0947         0.353896   
      8. B(N   8,C   1)                  1.3648         0.613840   
      9. B(H   9,N   8)                  1.0071         0.437387   
     10. B(H  10,N   8)                  1.0288         0.403852   
     11. A(H   2,C   0,C   4)          119.2997         0.329789   
     12. A(C   1,C   0,C   4)          122.2698         0.411817   
     13. A(C   1,C   0,H   2)          117.5279         0.360004   
     14. A(H   3,C   1,N   8)          115.0570         0.349297   
     15. A(C   0,C   1,N   8)          126.2580         0.439372   
     16. A(C   0,C   1,H   3)          118.6598         0.358920   
     17. A(H   5,C   4,H   6)          107.5137         0.288975   
     18. A(C   0,C   4,H   6)          110.9334         0.328618   
     19. A(H   6,C   4,H   7)          107.3672         0.289219   
     20. A(C   0,C   4,H   5)          111.7687         0.328372   
     21. A(H   5,C   4,H   7)          107.0981         0.289014   
     22. A(C   0,C   4,H   7)          111.9162         0.328664   
     23. A(H   9,N   8,H  10)          113.7508         0.300450   
     24. A(C   1,N   8,H  10)          116.3746         0.353890   
     25. A(C   1,N   8,H   9)          115.8433         0.358716   
     26. D(N   8,C   1,C   0,C   4)    166.5109         0.033958   
     27. D(N   8,C   1,C   0,H   2)     -2.5291         0.033958   
     28. D(H   3,C   1,C   0,C   4)    -11.5653         0.033958   
     29. D(H   3,C   1,C   0,H   2)    179.3947         0.033958   
     30. D(H   6,C   4,C   0,C   1)     16.5830         0.012575   
     31. D(H   5,C   4,C   0,H   2)     65.4555         0.012575   
     32. D(H   7,C   4,C   0,H   2)    -54.6710         0.012575   
     33. D(H   7,C   4,C   0,C   1)    136.4763         0.012575   
     34. D(H   6,C   4,C   0,H   2)   -174.5643         0.012575   
     35. D(H   5,C   4,C   0,C   1)   -103.3972         0.012575   
     36. D(H  10,N   8,C   1,H   3)   -171.8759         0.030464   
     37. D(H  10,N   8,C   1,C   0)      9.9876         0.030464   
     38. D(H   9,N   8,C   1,H   3)    -34.1721         0.030464   
     39. D(H   9,N   8,C   1,C   0)    147.6914         0.030464   
    -----------------------------------------------------------------

Number of atoms                         .... 11
Number of degrees of freedom            .... 39

         *************************************************************
         *                GEOMETRY OPTIMIZATION CYCLE   1            *
         *************************************************************
---------------------------------
CARTESIAN COORDINATES (ANGSTROEM)
---------------------------------
  C     -0.298749   -0.451286   -0.144120
  C      0.060164   -0.200017    1.144527
  H      0.076204    0.224049   -0.911891
  H     -0.314245   -0.860831    1.931804
  C     -0.970911   -1.731593   -0.554988
  H     -0.274325   -2.413892   -1.055872
  H     -1.377828   -2.256640    0.315467
  H     -1.800615   -1.553795   -1.246663
  N      0.890242    0.795551    1.571770
  H      0.685851    1.177655    2.480844
  H      1.150824    1.504550    0.873329

----------------------------
CARTESIAN COORDINATES (A.U.)
----------------------------
  NO LB      ZA    FRAG     MASS         X           Y           Z
   0 C     6.0000    0    12.011   -0.564554   -0.852807   -0.272347
   1 C     6.0000    0    12.011    0.113693   -0.377977    2.162843
   2 H     1.0000    0     1.008    0.144005    0.423391   -1.723224
   3 H     1.0000    0     1.008   -0.593837   -1.626735    3.650581
   4 C     6.0000    0    12.011   -1.834756   -3.272237   -1.048775
   5 H     1.0000    0     1.008   -0.518399   -4.561595   -1.995309
   6 H     1.0000    0     1.008   -2.603718   -4.264432    0.596146
   7 H     1.0000    0     1.008   -3.402669   -2.936247   -2.355852
   8 N     7.0000    0    14.007    1.682314    1.503374    2.970215
   9 H     1.0000    0     1.008    1.296071    2.225445    4.688116
  10 H     1.0000    0     1.008    2.174742    2.843187    1.650353

--------------------------------
INTERNAL COORDINATES (ANGSTROEM)
--------------------------------
 C      0   0   0     0.000000000000     0.00000000     0.00000000
 C      1   0   0     1.361089909793     0.00000000     0.00000000
 H      1   2   0     1.089100281368   117.52790444     0.00000000
 H      2   1   3     1.093920617141   118.65979430   179.39472823
 C      1   2   3     1.503263211123   122.26976580   169.04000724
 H      5   1   2     1.096197410256   111.76868363   256.60278400
 H      5   1   2     1.094964704510   110.93336843    16.58295140
 H      5   1   2     1.094730634469   111.91622757   136.47629077
 N      2   1   3     1.364815632149   126.25795624   357.47086746
 H      9   2   1     1.007072333635   115.84326702   147.69142434
 H      9   2   1     1.028786854118   116.37457612     9.98761971

---------------------------
INTERNAL COORDINATES (A.U.)
---------------------------
 C      0   0   0     0.000000000000     0.00000000     0.00000000
 C      1   0   0     2.572087173151     0.00000000     0.00000000
 H      1   2   0     2.058101264161   117.52790444     0.00000000
 H      2   1   3     2.067210378646   118.65979430   179.39472823
 C      1   2   3     2.840755776222   122.26976580   169.04000724
 H      5   1   2     2.071512894098   111.76868363   256.60278400
 H      5   1   2     2.069183417834   110.93336843    16.58295140
 H      5   1   2     2.068741089560   111.91622757   136.47629077
 N      2   1   3     2.579127768055   126.25795624   357.47086746
 H      9   2   1     1.903090907619   115.84326702   147.69142434
 H      9   2   1     1.944125404461   116.37457612     9.98761971

---------------------
BASIS SET INFORMATION
---------------------
There are 3 groups of distinct atoms

 Group   1 Type C   : 11s5p1d contracted to 4s3p1d pattern {6311/311/1}
 Group   2 Type H   : 5s contracted to 3s pattern {311}
 Group   3 Type N   : 11s5p1d contracted to 4s3p1d pattern {6311/311/1}

Atom   0C    basis set group =>   1
Atom   1C    basis set group =>   1
Atom   2H    basis set group =>   2
Atom   3H    basis set group =>   2
Atom   4C    basis set group =>   1
Atom   5H    basis set group =>   2
Atom   6H    basis set group =>   2
Atom   7H    basis set group =>   2
Atom   8N    basis set group =>   3
Atom   9H    basis set group =>   2
Atom  10H    basis set group =>   2
------------------------------------------------------------------------------
                           ORCA GTO INTEGRAL CALCULATION
------------------------------------------------------------------------------

                         BASIS SET STATISTICS AND STARTUP INFO

 # of primitive gaussian shells          ...  103
 # of primitive gaussian functions       ...  159
 # of contracted shells                  ...   53
 # of contracted basis functions         ...   93
 Highest angular momentum                ...    2
 Maximum contraction depth               ...    6
 Integral package used                   ... LIBINT
 Integral threshhold            Thresh   ...  3.000e-16
 Primitive cut-off              TCut     ...  3.000e-18


------------------------------ INTEGRAL EVALUATION ----------------------------


 * One electron integrals 
 Pre-screening matrix                    ... done
 Shell pair data                         ... done (   0.001 sec)

-------------------------------------------------------------------------------
                                 ORCA SCF
-------------------------------------------------------------------------------

------------
SCF SETTINGS
------------
Hamiltonian:
 Ab initio Hamiltonian  Method          .... Hartree-Fock(GTOs)


General Settings:
 Integral files         IntName         .... run
 Hartree-Fock type      HFTyp           .... RHF
 Total Charge           Charge          ....    0
 Multiplicity           Mult            ....    1
 Number of Electrons    NEL             ....   32
 Basis Dimension        Dim             ....   93
 Nuclear Repulsion      ENuc            ....    116.9729103449 Eh

Convergence Acceleration:
 DIIS                   CNVDIIS         .... on
   Start iteration      DIISMaxIt       ....    12
   Startup error        DIISStart       ....  0.200000
   # of expansion vecs  DIISMaxEq       ....     5
   Bias factor          DIISBfac        ....   1.050
   Max. coefficient     DIISMaxC        ....  10.000
 Newton-Raphson         CNVNR           .... off
 SOSCF                  CNVSOSCF        .... on
   Start iteration      SOSCFMaxIt      ....   150
   Startup grad/error   SOSCFStart      ....  0.003300
 Level Shifting         CNVShift        .... on
   Level shift para.    LevelShift      ....    0.2500
   Turn off err/grad.   ShiftErr        ....    0.0010
 Zerner damping         CNVZerner       .... off
 Static damping         CNVDamp         .... on
   Fraction old density DampFac         ....    0.7000
   Max. Damping (<1)    DampMax         ....    0.9800
   Min. Damping (>=0)   DampMin         ....    0.0000
   Turn off err/grad.   DampErr         ....    0.1000
 Fernandez-Rico         CNVRico         .... off

SCF Procedure:
 Maximum # iterations   MaxIter         ....   125
 SCF integral mode      SCFMode         .... Direct
   Integral package                     .... LIBINT
 Reset frequeny         DirectResetFreq ....    20
 Integral Threshold     Thresh          ....  3.000e-16 Eh
 Primitive CutOff       TCut            ....  3.000e-18 Eh

Convergence Tolerance:
 Convergence Check Mode ConvCheckMode   .... All-Criteria
 Convergence forced     ConvForced      .... 1
 Energy Change          TolE            ....  1.000e-14 Eh
 Max Density Change     TolMaxP         ....  1.000e-14
 RMS Density Change     TolRMSP         ....  1.000e-14
 Orbital Gradient       TolG            ....  1.000e-09
 Orbital Rotation angle TolX            ....  1.000e-09
 DIIS Error             TolErr          ....  1.000e-14


Diagonalization of the overlap matrix:
Smallest eigenvalue                        ... 2.221e-03
Time for diagonalization                   ...    0.002 sec
Threshold for overlap eigenvalues          ... 1.000e-08
Number of eigenvalues below threshold      ... 0
Time for construction of square roots      ...    0.000 sec
Total time needed                          ...    0.002 sec

-------------------
DFT GRID GENERATION
-------------------

General Integration Accuracy     IntAcc      ...  4.340
Radial Grid Type                 RadialGrid  ... Gauss-Chebyshev
Angular Grid (max. acc.)         AngularGrid ... Lebedev-110
Angular grid pruning method      GridPruning ... 3 (G Style)
Weight generation scheme         WeightScheme... Becke
Basis function cutoff            BFCut       ...    3.0000e-16
Integration weight cutoff        WCut        ...    1.0000e-14
Grids for H and He will be reduced by one unit

# of grid points (after initial pruning)     ...  12228 (   0.0 sec)
# of grid points (after weights+screening)   ...  11650 (   0.0 sec)
nearest neighbour list constructed           ...    0.0 sec
Grid point re-assignment to atoms done       ...    0.0 sec
Grid point division into batches done        ...    0.0 sec
Reduced shell lists constructed in    0.1 sec

Total number of grid points                  ...    11650
Total number of batches                      ...      189
Average number of points per batch           ...       61
Average number of grid points per atom       ...     1059
Average number of shells per batch           ...    44.24 (83.48%)
Average number of basis functions per batch  ...    78.71 (84.63%)
Average number of large shells per batch     ...    37.66 (85.13%)
Average number of large basis fcns per batch ...    67.94 (86.32%)
Maximum spatial batch extension              ...  23.65, 25.32, 19.37 au
Average spatial batch extension              ...   4.34,  4.28,  4.05 au

Time for grid setup =    0.169 sec

------------------------------
INITIAL GUESS: MODEL POTENTIAL
------------------------------
Loading Hartree-Fock densities                     ... done
Calculating cut-offs                               ... done
Setting up the integral package                    ... done
Initializing the effective Hamiltonian             ... done
Starting the Coulomb interaction                   ... done (   0.1 sec)
Reading the grid                                   ... done
Mapping shells                                     ... done
Starting the XC term evaluation                    ... done (   0.2 sec)
Transforming the Hamiltonian                       ... done (   0.0 sec)
Diagonalizing the Hamiltonian                      ... done (   0.0 sec)
Back transforming the eigenvectors                 ... done (   0.0 sec)
Now organizing SCF variables                       ... done
                      ------------------
                      INITIAL GUESS DONE (   0.5 sec)
                      ------------------
--------------
SCF ITERATIONS
--------------
ITER       Energy         Delta-E        Max-DP      RMS-DP      [F,P]     Damp
               ***  Starting incremental Fock matrix formation  ***
  0   -171.8621043180   0.000000000000 0.05313214  0.00202188  0.3241295 0.7000
  1   -171.9574090738  -0.095304755856 0.03987528  0.00155383  0.2045729 0.7000
                               ***Turning on DIIS***
  2   -172.0144193093  -0.057010235477 0.02372011  0.00097080  0.1208996 0.7000
  3   -172.6207437872  -0.606324477880 0.03188052  0.00174983  0.0716141 0.0000
  4   -172.0927796131   0.527964174062 0.00850487  0.00039955  0.0088804 0.0000
                      *** Initiating the SOSCF procedure ***
                           *** Shutting down DIIS ***
                      *** Re-Reading the Fockian *** 
                      *** Removing any level shift *** 
ITER      Energy       Delta-E        Grad      Rot      Max-DP    RMS-DP
  5   -172.13476211  -0.0419824960  0.002617  0.002617  0.003212  0.000174
               *** Restarting incremental Fock matrix formation ***
  6   -172.12903151   0.0057305970  0.001099  0.001616  0.001686  0.000092
  7   -172.12905176  -0.0000202443  0.000428  0.001203  0.000974  0.000063
  8   -172.12905651  -0.0000047490  0.000042  0.000112  0.000102  0.000006
  9   -172.12905659  -0.0000000804  0.000031  0.000128  0.000090  0.000005
 10   -172.12905661  -0.0000000219  0.000007  0.000009  0.000017  0.000001
 11   -172.12905661  -0.0000000015  0.000003  0.000004  0.000006  0.000000
 12   -172.12905661  -0.0000000002  0.000001  0.000003  0.000003  0.000000
 13   -172.12905661  -0.0000000000  0.000000  0.000000  0.000000  0.000000
 14   -172.12905661  -0.0000000000  0.000000  0.000000  0.000000  0.000000
 15   -172.12905661   0.0000000000  0.000000  0.000000  0.000000  0.000000
                          ***Energy convergence achieved***
 16   -172.12905661   0.0000000000  0.000000  0.000000  0.000000  0.000000
 17   -172.12905661  -0.0000000000  0.000000  0.000000  0.000000  0.000000
                    ***Orbital Rotation convergence achieved***
 18   -172.12905661   0.0000000000  0.000000  0.000000  0.000000  0.000000
                           ***RMSP convergence achieved***
                           ***MAXP convergence achieved***
                       ***Gradient convergence achieved***
 19   -172.12905661  -0.0000000000  0.000000  0.000000  0.000000  0.000000
                          ***Energy convergence achieved***
              ***Rediagonalizing the Fockian in SOSCF/NRSCF***

               *****************************************************
               *                     SUCCESS                       *
               *           SCF CONVERGED AFTER  20 CYCLES          *
               *****************************************************


----------------
TOTAL SCF ENERGY
----------------

Total Energy       :         -172.12905661 Eh           -4683.86975 eV

Components:
Nuclear Repulsion  :          116.97291034 Eh            3182.99471 eV
Electronic Energy  :         -289.10196695 Eh           -7866.86446 eV
One Electron Energy:         -463.47807874 Eh          -12611.87970 eV
Two Electron Energy:          174.37611179 Eh            4745.01523 eV

Virial components:
Potential Energy   :         -344.10815968 Eh           -9363.65906 eV
Kinetic Energy     :          171.97910307 Eh            4679.78931 eV
Virial Ratio       :            2.00087193


---------------
SCF CONVERGENCE
---------------

  Last Energy change         ...    0.0000e+00  Tolerance :   1.0000e-14
  Last MAX-Density change    ...    0.0000e+00  Tolerance :   1.0000e-14
  Last RMS-Density change    ...    0.0000e+00  Tolerance :   1.0000e-14
  Last Orbital Gradient      ...    9.9762e-10  Tolerance :   1.0000e-09
  Last Orbital Rotation      ...    0.0000e+00  Tolerance :   1.0000e-09

             **** THE GBW FILE WAS UPDATED (run.gbw) ****
             **** DENSITY FILE WAS UPDATED (run.scfp.tmp) ****
             **** ENERGY FILE WAS UPDATED (run.en.tmp) ****
----------------
ORBITAL ENERGIES
----------------

  NO   OCC          E(Eh)            E(eV) 
   0   2.0000     -15.556142      -423.3041 
   1   2.0000     -11.259515      -306.3870 
   2   2.0000     -11.210500      -305.0532 
   3   2.0000     -11.200426      -304.7791 
   4   2.0000      -1.211099       -32.9557 
   5   2.0000      -1.026664       -27.9369 
   6   2.0000      -0.897494       -24.4221 
   7   2.0000      -0.770033       -20.9537 
   8   2.0000      -0.685219       -18.6458 
   9   2.0000      -0.646532       -17.5930 
  10   2.0000      -0.554600       -15.0914 
  11   2.0000      -0.552304       -15.0290 
  12   2.0000      -0.528493       -14.3810 
  13   2.0000      -0.492757       -13.4086 
  14   2.0000      -0.479278       -13.0418 
  15   2.0000      -0.291872        -7.9422 
  16   0.0000       0.158859         4.3228 
  17   0.0000       0.171339         4.6624 
  18   0.0000       0.178441         4.8556 
  19   0.0000       0.200977         5.4689 
  20   0.0000       0.231832         6.3085 
  21   0.0000       0.239607         6.5200 
  22   0.0000       0.244379         6.6499 
  23   0.0000       0.272301         7.4097 
  24   0.0000       0.396260        10.7828 
  25   0.0000       0.440244        11.9796 
  26   0.0000       0.453272        12.3342 
  27   0.0000       0.473854        12.8942 
  28   0.0000       0.515133        14.0175 
  29   0.0000       0.525800        14.3078 
  30   0.0000       0.589899        16.0520 
  31   0.0000       0.620267        16.8783 
  32   0.0000       0.626911        17.0591 
  33   0.0000       0.650302        17.6956 
  34   0.0000       0.705673        19.2023 
  35   0.0000       0.727609        19.7993 
  36   0.0000       0.767888        20.8953 
  37   0.0000       0.792190        21.5566 
  38   0.0000       0.809499        22.0276 
  39   0.0000       0.819616        22.3029 
  40   0.0000       0.862736        23.4762 
  41   0.0000       0.876413        23.8484 
  42   0.0000       0.880286        23.9538 
  43   0.0000       0.922446        25.1010 
  44   0.0000       0.964112        26.2348 
  45   0.0000       1.031248        28.0617 
  46   0.0000       1.048163        28.5220 
  47   0.0000       1.098472        29.8910 
  48   0.0000       1.117537        30.4097 
  49   0.0000       1.363528        37.1035 
  50   0.0000       1.399369        38.0788 
  51   0.0000       1.464524        39.8517 
  52   0.0000       1.617660        44.0188 
  53   0.0000       1.644752        44.7560 
  54   0.0000       1.723524        46.8995 
  55   0.0000       1.778273        48.3893 
  56   0.0000       1.795405        48.8555 
  57   0.0000       1.889182        51.4072 
  58   0.0000       1.933754        52.6201 
  59   0.0000       2.003124        54.5078 
  60   0.0000       2.023048        55.0499 
  61   0.0000       2.200329        59.8740 
  62   0.0000       2.235944        60.8431 
  63   0.0000       2.281853        62.0924 
  64   0.0000       2.300540        62.6009 
  65   0.0000       2.368713        64.4560 
  66   0.0000       2.457196        66.8637 
  67   0.0000       2.538234        69.0689 
  68   0.0000       2.665357        72.5280 
  69   0.0000       2.710625        73.7599 
  70   0.0000       2.777439        75.5780 
  71   0.0000       2.819589        76.7249 
  72   0.0000       2.885501        78.5185 
  73   0.0000       2.926019        79.6210 
  74   0.0000       3.024953        82.3132 
  75   0.0000       3.098907        84.3255 
  76   0.0000       3.154816        85.8469 
  77   0.0000       3.285113        89.3925 
  78   0.0000       3.369277        91.6827 
  79   0.0000       3.485459        94.8442 
  80   0.0000       3.550299        96.6085 
  81   0.0000       3.596228        97.8583 
  82   0.0000       3.690204       100.4155 
  83   0.0000       3.705321       100.8269 
  84   0.0000       3.979810       108.2961 
  85   0.0000       4.248369       115.6040 
  86   0.0000       4.414387       120.1216 
  87   0.0000       4.597946       125.1165 
  88   0.0000       5.135453       139.7428 
  89   0.0000      24.535476       667.6443 
  90   0.0000      24.815074       675.2525 
  91   0.0000      25.281070       687.9329 
  92   0.0000      36.865975      1003.1742 

                    ********************************
                    * MULLIKEN POPULATION ANALYSIS *
                    ********************************

-----------------------
MULLIKEN ATOMIC CHARGES
-----------------------
   0 C :   -0.335385
   1 C :    0.076926
   2 H :    0.187742
   3 H :    0.209441
   4 C :   -0.608728
   5 H :    0.205946
   6 H :    0.199599
   7 H :    0.201590
   8 N :   -0.834293
   9 H :    0.346110
  10 H :    0.351051
Sum of atomic charges:   -0.0000000

--------------------------------
MULLIKEN REDUCED ORBITAL CHARGES
--------------------------------
  0 C s       :     3.221651  s :     3.221651
      pz      :     0.933280  p :     3.044874
      px      :     1.104335
      py      :     1.007259
      dz2     :     0.014591  d :     0.068860
      dxz     :     0.015665
      dyz     :     0.023676
      dx2y2   :     0.007111
      dxy     :     0.007817
  1 C s       :     3.092873  s :     3.092873
      pz      :     1.007733  p :     2.725526
      px      :     0.865311
      py      :     0.852482
      dz2     :     0.018359  d :     0.104674
      dxz     :     0.024000
      dyz     :     0.029166
      dx2y2   :     0.019342
      dxy     :     0.013809
  2 H s       :     0.812258  s :     0.812258
  3 H s       :     0.790559  s :     0.790559
  4 C s       :     3.355660  s :     3.355660
      pz      :     1.117447  p :     3.179499
      px      :     1.071771
      py      :     0.990281
      dz2     :     0.006457  d :     0.073569
      dxz     :     0.021737
      dyz     :     0.016327
      dx2y2   :     0.011154
      dxy     :     0.017895
  5 H s       :     0.794054  s :     0.794054
  6 H s       :     0.800401  s :     0.800401
  7 H s       :     0.798410  s :     0.798410
  8 N s       :     3.635125  s :     3.635125
      pz      :     1.234151  p :     4.164679
      px      :     1.631602
      py      :     1.298927
      dz2     :     0.006388  d :     0.034488
      dxz     :     0.004255
      dyz     :     0.013758
      dx2y2   :     0.004462
      dxy     :     0.005626
  9 H s       :     0.653890  s :     0.653890
 10 H s       :     0.648949  s :     0.648949


                     *******************************
                     * LOEWDIN POPULATION ANALYSIS *
                     *******************************

----------------------
LOEWDIN ATOMIC CHARGES
----------------------
   0 C :   -0.230765
   1 C :   -0.087982
   2 H :    0.091757
   3 H :    0.101069
   4 C :   -0.270089
   5 H :    0.097604
   6 H :    0.097967
   7 H :    0.094976
   8 N :   -0.317014
   9 H :    0.209699
  10 H :    0.212778

-------------------------------
LOEWDIN REDUCED ORBITAL CHARGES
-------------------------------
  0 C s       :     2.848976  s :     2.848976
      pz      :     1.084460  p :     3.252466
      px      :     1.096646
      py      :     1.071360
      dz2     :     0.032192  d :     0.129322
      dxz     :     0.026679
      dyz     :     0.042187
      dx2y2   :     0.013862
      dxy     :     0.014403
  1 C s       :     2.835595  s :     2.835595
      pz      :     1.118085  p :     3.043504
      px      :     0.956139
      py      :     0.969281
      dz2     :     0.037778  d :     0.208882
      dxz     :     0.045580
      dyz     :     0.053274
      dx2y2   :     0.041836
      dxy     :     0.030414
  2 H s       :     0.908243  s :     0.908243
  3 H s       :     0.898931  s :     0.898931
  4 C s       :     2.882090  s :     2.882090
      pz      :     1.097260  p :     3.273121
      px      :     1.095139
      py      :     1.080722
      dz2     :     0.009634  d :     0.114878
      dxz     :     0.030220
      dyz     :     0.026058
      dx2y2   :     0.020440
      dxy     :     0.028526
  5 H s       :     0.902396  s :     0.902396
  6 H s       :     0.902033  s :     0.902033
  7 H s       :     0.905024  s :     0.905024
  8 N s       :     3.124810  s :     3.124810
      pz      :     1.199001  p :     4.140993
      px      :     1.624829
      py      :     1.317163
      dz2     :     0.009530  d :     0.051212
      dxz     :     0.006240
      dyz     :     0.019378
      dx2y2   :     0.006806
      dxy     :     0.009257
  9 H s       :     0.790301  s :     0.790301
 10 H s       :     0.787222  s :     0.787222


                      *****************************
                      * MAYER POPULATION ANALYSIS *
                      *****************************

  NA   - Mulliken gross atomic population
  ZA   - Total nuclear charge
  QA   - Mulliken gross atomic charge
  VA   - Mayer's total valence
  BVA  - Mayer's bonded valence
  FA   - Mayer's free valence

  ATOM       NA         ZA         QA         VA         BVA        FA
  0 C      6.3354     6.0000    -0.3354     3.7425     3.7425    -0.0000
  1 C      5.9231     6.0000     0.0769     3.7143     3.7143     0.0000
  2 H      0.8123     1.0000     0.1877     0.9323     0.9323    -0.0000
  3 H      0.7906     1.0000     0.2094     0.9269     0.9269     0.0000
  4 C      6.6087     6.0000    -0.6087     3.7653     3.7653     0.0000
  5 H      0.7941     1.0000     0.2059     0.9017     0.9017     0.0000
  6 H      0.8004     1.0000     0.1996     0.9173     0.9173    -0.0000
  7 H      0.7984     1.0000     0.2016     0.9050     0.9050     0.0000
  8 N      7.8343     7.0000    -0.8343     2.7139     2.7139     0.0000
  9 H      0.6539     1.0000     0.3461     0.8475     0.8475    -0.0000
 10 H      0.6489     1.0000     0.3511     0.8502     0.8502    -0.0000

  Mayer bond orders larger than 0.1
B(  0-C ,  1-C ) :   1.8579 B(  0-C ,  2-H ) :   0.9560 B(  0-C ,  4-C ) :   0.9570 
B(  1-C ,  3-H ) :   0.9409 B(  1-C ,  8-N ) :   0.9656 B(  4-C ,  5-H ) :   0.9365 
B(  4-C ,  6-H ) :   0.9559 B(  4-C ,  7-H ) :   0.9474 B(  8-N ,  9-H ) :   0.8502 
B(  8-N , 10-H ) :   0.8527 

-------
TIMINGS
-------

Total SCF time: 0 days 0 hours 0 min 28 sec 

Total time                  ....      28.285 sec
Sum of individual times     ....      27.036 sec  ( 95.6%)

Fock matrix formation       ....      26.485 sec  ( 93.6%)
Diagonalization             ....       0.018 sec  (  0.1%)
Density matrix formation    ....       0.002 sec  (  0.0%)
Population analysis         ....       0.005 sec  (  0.0%)
Initial guess               ....       0.338 sec  (  1.2%)
Orbital Transformation      ....       0.000 sec  (  0.0%)
Orbital Orthonormalization  ....       0.000 sec  (  0.0%)
DIIS solution               ....       0.004 sec  (  0.0%)
SOSCF solution              ....       0.016 sec  (  0.1%)

------------------------------------------------------------------------------
                                ORCA  MP2 
------------------------------------------------------------------------------

MP2 will be done in the AO integral direct mode
The Q1-step will be done using symmetric double matrices
Dimension of the basis                    ...   93
Memory devoted for MP2                    ... 5000 MB   
Memory needed for all in one shot         ...   51 MB
Number of MOs that can be treated together... 1611      
MP2 density construction                  ... relaxed
The MP2 gradient is requested => amplitudes will be stored on disk
Total number of MOs              ...   16
Number of MOs treated per batch  ...   16 
Number of batches necessary      ...    1 
OPERATORS   0/  0 PASS   0
-----------------------------------------------
 MP2 CORRELATION ENERGY   :     -0.655956625 Eh
-----------------------------------------------


---------------------
MP2 DENSITY FORMATION
---------------------

Completing the external part of the density      ... done
Storing the unrelaxed density                    ... done

Calculating G(D)                                 ... done
Completing the Lagrangian                        ... done
Solving the Z-vector equations                   ... 

------------------------------------------------------------------------------
                           ORCA CP-SCF CALCULATION
------------------------------------------------------------------------------

Input orbitals are from        ... run.gbw
Input Perturbation             ... run.pin.tmp
Wavefunction output            ... run.pout.tmp
Perturbation mode              ... Real perturbation
Solver                         ... POPLE
Max. number of iterations      ... 128
Convergence tolerance          ... 1.000e-11
Integral handling              ... Direct
Number of perturbations        ... 1
Number of operators            ... 1
Orbital ranges used for CP-SCF:
 Operator 0:  Orbitals   0... 15  to  16... 92
Variables per vector in CP-SCF ... 1232
Number of vectors sought       ... 1
     CP-SCF ITERATION   0: 
     CP-SCF ITERATION   1:      0.000370913017
     CP-SCF ITERATION   2:      0.000022638469
     CP-SCF ITERATION   3:      0.000003640136
     CP-SCF ITERATION   4:      0.000000216968
     CP-SCF ITERATION   5:      0.000000024399
     CP-SCF ITERATION   6:      0.000000002813
     CP-SCF ITERATION   7:      0.000000000314
     CP-SCF ITERATION   8:      0.000000000016
     CP-SCF ITERATION   9:      0.000000000001
                                                 ... done
Finalizing the relaxed density                   ... done
Transforming P to the AO basis                   ... done
Storing the relaxed density                      ... done

------------------------------------
ENERGY WEIGHTED DENSITY FINALIZATION
------------------------------------

Gathering the parts of the W-matrix              ...                                                      done
Forming the Z-density                            ... done
Transforming Z to the AO basis                   ... done
Calculating G(Z)                                 ... done
Finalizing the W-matrix                          ...                                                      done
Transforming W to the AO basis and storing       ... done

                *********************************************
                * UNRELAXED MP2 DENSITY POPULATION ANALYSIS *
                *********************************************

------------------------------------------------------------------------------
                           ORCA POPULATION ANALYSIS
------------------------------------------------------------------------------
Input electron density              ... run.pmp2ur
BaseName (.gbw .S,...)              ... run

                    ********************************
                    * MULLIKEN POPULATION ANALYSIS *
                    ********************************

-----------------------
MULLIKEN ATOMIC CHARGES
-----------------------
   0 C :   -0.336153
   1 C :    0.064250
   2 H :    0.190498
   3 H :    0.211891
   4 C :   -0.615590
   5 H :    0.208520
   6 H :    0.202150
   7 H :    0.204277
   8 N :   -0.826121
   9 H :    0.345848
  10 H :    0.350430
Sum of atomic charges:   -0.0000000

--------------------------------
MULLIKEN REDUCED ORBITAL CHARGES
--------------------------------
  0 C s       :     3.220625  s :     3.220625
      pz      :     0.929379  p :     3.026500
      px      :     1.095794
      py      :     1.001326
      dz2     :     0.018426  d :     0.089028
      dxz     :     0.019598
      dyz     :     0.027754
      dx2y2   :     0.011337
      dxy     :     0.011914
  1 C s       :     3.091620  s :     3.091620
      pz      :     1.002398  p :     2.722267
      px      :     0.867458
      py      :     0.852411
      dz2     :     0.021929  d :     0.121863
      dxz     :     0.027389
      dyz     :     0.032783
      dx2y2   :     0.022840
      dxy     :     0.016921
  2 H s       :     0.809502  s :     0.809502
  3 H s       :     0.788109  s :     0.788109
  4 C s       :     3.352111  s :     3.352111
      pz      :     1.114235  p :     3.170350
      px      :     1.069264
      py      :     0.986850
      dz2     :     0.010629  d :     0.093128
      dxz     :     0.025376
      dyz     :     0.020201
      dx2y2   :     0.015331
      dxy     :     0.021592
  5 H s       :     0.791480  s :     0.791480
  6 H s       :     0.797850  s :     0.797850
  7 H s       :     0.795723  s :     0.795723
  8 N s       :     3.631305  s :     3.631305
      pz      :     1.229046  p :     4.140157
      px      :     1.619490
      py      :     1.291620
      dz2     :     0.010289  d :     0.054659
      dxz     :     0.008373
      dyz     :     0.017434
      dx2y2   :     0.008903
      dxy     :     0.009660
  9 H s       :     0.654152  s :     0.654152
 10 H s       :     0.649570  s :     0.649570


                     *******************************
                     * LOEWDIN POPULATION ANALYSIS *
                     *******************************

----------------------
LOEWDIN ATOMIC CHARGES
----------------------
   0 C :   -0.232766
   1 C :   -0.100302
   2 H :    0.096126
   3 H :    0.105133
   4 C :   -0.281407
   5 H :    0.101660
   6 H :    0.101893
   7 H :    0.099052
   8 N :   -0.314569
   9 H :    0.211181
  10 H :    0.213999

-------------------------------
LOEWDIN REDUCED ORBITAL CHARGES
-------------------------------
  0 C s       :     2.849148  s :     2.849148
      pz      :     1.077701  p :     3.230234
      px      :     1.088481
      py      :     1.064052
      dz2     :     0.037659  d :     0.153384
      dxz     :     0.031255
      dyz     :     0.046633
      dx2y2   :     0.018511
      dxy     :     0.019326
  1 C s       :     2.835831  s :     2.835831
      pz      :     1.111210  p :     3.035845
      px      :     0.956551
      py      :     0.968084
      dz2     :     0.042858  d :     0.228625
      dxz     :     0.049241
      dyz     :     0.057101
      dx2y2   :     0.044926
      dxy     :     0.034500
  2 H s       :     0.903874  s :     0.903874
  3 H s       :     0.894867  s :     0.894867
  4 C s       :     2.882723  s :     2.882723
      pz      :     1.094229  p :     3.261534
      px      :     1.091831
      py      :     1.075474
      dz2     :     0.014351  d :     0.137151
      dxz     :     0.034449
      dyz     :     0.030456
      dx2y2   :     0.024912
      dxy     :     0.032982
  5 H s       :     0.898340  s :     0.898340
  6 H s       :     0.898107  s :     0.898107
  7 H s       :     0.900948  s :     0.900948
  8 N s       :     3.124305  s :     3.124305
      pz      :     1.194859  p :     4.116770
      px      :     1.612400
      py      :     1.309512
      dz2     :     0.013753  d :     0.073494
      dxz     :     0.010634
      dyz     :     0.023531
      dx2y2   :     0.011408
      dxy     :     0.014168
  9 H s       :     0.788819  s :     0.788819
 10 H s       :     0.786001  s :     0.786001


                      *****************************
                      * MAYER POPULATION ANALYSIS *
                      *****************************

  NA   - Mulliken gross atomic population
  ZA   - Total nuclear charge
  QA   - Mulliken gross atomic charge
  VA   - Mayer's total valence
  BVA  - Mayer's bonded valence
  FA   - Mayer's free valence

  ATOM       NA         ZA         QA         VA         BVA        FA
  0 C      6.3362     6.0000    -0.3362     3.8555     3.5002     0.3553
  1 C      5.9358     6.0000     0.0642     3.7995     3.4788     0.3206
  2 H      0.8095     1.0000     0.1905     0.9345     0.8942     0.0403
  3 H      0.7881     1.0000     0.2119     0.9285     0.8905     0.0381
  4 C      6.6156     6.0000    -0.6156     3.8775     3.6031     0.2745
  5 H      0.7915     1.0000     0.2085     0.9034     0.8645     0.0388
  6 H      0.7978     1.0000     0.2022     0.9189     0.8805     0.0383
  7 H      0.7957     1.0000     0.2043     0.9066     0.8683     0.0384
  8 N      7.8261     7.0000    -0.8261     2.9217     2.5834     0.3383
  9 H      0.6542     1.0000     0.3458     0.8490     0.8113     0.0377
 10 H      0.6496     1.0000     0.3504     0.8520     0.8135     0.0386

  Mayer bond orders larger than 0.1
B(  0-C ,  1-C ) :   1.7143 B(  0-C ,  2-H ) :   0.9186 B(  0-C ,  4-C ) :   0.9045 
B(  1-C ,  3-H ) :   0.9052 B(  1-C ,  8-N ) :   0.9139 B(  4-C ,  5-H ) :   0.9007 
B(  4-C ,  6-H ) :   0.9193 B(  4-C ,  7-H ) :   0.9114 B(  8-N ,  9-H ) :   0.8159 
B(  8-N , 10-H ) :   0.8174 


                *******************************************
                * RELAXED MP2 DENSITY POPULATION ANALYSIS *
                *******************************************

------------------------------------------------------------------------------
                           ORCA POPULATION ANALYSIS
------------------------------------------------------------------------------
Input electron density              ... run.pmp2re
BaseName (.gbw .S,...)              ... run

                    ********************************
                    * MULLIKEN POPULATION ANALYSIS *
                    ********************************

-----------------------
MULLIKEN ATOMIC CHARGES
-----------------------
   0 C :   -0.288517
   1 C :    0.021599
   2 H :    0.181834
   3 H :    0.198521
   4 C :   -0.671287
   5 H :    0.220617
   6 H :    0.213174
   7 H :    0.216950
   8 N :   -0.771870
   9 H :    0.339708
  10 H :    0.339271
Sum of atomic charges:   -0.0000000

--------------------------------
MULLIKEN REDUCED ORBITAL CHARGES
--------------------------------
  0 C s       :     3.204365  s :     3.204365
      pz      :     0.928207  p :     3.004537
      px      :     1.086525
      py      :     0.989805
      dz2     :     0.016367  d :     0.079615
      dxz     :     0.016739
      dyz     :     0.024753
      dx2y2   :     0.010748
      dxy     :     0.011008
  1 C s       :     3.092471  s :     3.092471
      pz      :     0.990087  p :     2.776643
      px      :     0.912358
      py      :     0.874198
      dz2     :     0.019506  d :     0.109287
      dxz     :     0.023866
      dyz     :     0.029250
      dx2y2   :     0.021327
      dxy     :     0.015338
  2 H s       :     0.818166  s :     0.818166
  3 H s       :     0.801479  s :     0.801479
  4 C s       :     3.345971  s :     3.345971
      pz      :     1.137102  p :     3.243705
      px      :     1.094008
      py      :     1.012595
      dz2     :     0.009357  d :     0.081610
      dxz     :     0.021655
      dyz     :     0.017898
      dx2y2   :     0.014086
      dxy     :     0.018615
  5 H s       :     0.779383  s :     0.779383
  6 H s       :     0.786826  s :     0.786826
  7 H s       :     0.783050  s :     0.783050
  8 N s       :     3.606922  s :     3.606922
      pz      :     1.226026  p :     4.113569
      px      :     1.601812
      py      :     1.285731
      dz2     :     0.009405  d :     0.051378
      dxz     :     0.008003
      dyz     :     0.015851
      dx2y2   :     0.009142
      dxy     :     0.008977
  9 H s       :     0.660292  s :     0.660292
 10 H s       :     0.660729  s :     0.660729


                     *******************************
                     * LOEWDIN POPULATION ANALYSIS *
                     *******************************

----------------------
LOEWDIN ATOMIC CHARGES
----------------------
   0 C :   -0.225334
   1 C :   -0.134187
   2 H :    0.100738
   3 H :    0.106704
   4 C :   -0.315315
   5 H :    0.113024
   6 H :    0.112621
   7 H :    0.110522
   8 N :   -0.296485
   9 H :    0.213288
  10 H :    0.214424

-------------------------------
LOEWDIN REDUCED ORBITAL CHARGES
-------------------------------
  0 C s       :     2.852335  s :     2.852335
      pz      :     1.082157  p :     3.226615
      px      :     1.084041
      py      :     1.060416
      dz2     :     0.036009  d :     0.146384
      dxz     :     0.029045
      dyz     :     0.044519
      dx2y2   :     0.018160
      dxy     :     0.018650
  1 C s       :     2.837107  s :     2.837107
      pz      :     1.107735  p :     3.078593
      px      :     0.986304
      py      :     0.984554
      dz2     :     0.041674  d :     0.218486
      dxz     :     0.046487
      dyz     :     0.054297
      dx2y2   :     0.042873
      dxy     :     0.033155
  2 H s       :     0.899262  s :     0.899262
  3 H s       :     0.893296  s :     0.893296
  4 C s       :     2.885293  s :     2.885293
      pz      :     1.110263  p :     3.304522
      px      :     1.107103
      py      :     1.087155
      dz2     :     0.013079  d :     0.125500
      dxz     :     0.030801
      dyz     :     0.028127
      dx2y2   :     0.023576
      dxy     :     0.029917
  5 H s       :     0.886976  s :     0.886976
  6 H s       :     0.887379  s :     0.887379
  7 H s       :     0.889478  s :     0.889478
  8 N s       :     3.123184  s :     3.123184
      pz      :     1.199898  p :     4.102455
      px      :     1.595037
      py      :     1.307520
      dz2     :     0.012922  d :     0.070846
      dxz     :     0.010280
      dyz     :     0.022298
      dx2y2   :     0.011922
      dxy     :     0.013424
  9 H s       :     0.786712  s :     0.786712
 10 H s       :     0.785576  s :     0.785576


                      *****************************
                      * MAYER POPULATION ANALYSIS *
                      *****************************

  NA   - Mulliken gross atomic population
  ZA   - Total nuclear charge
  QA   - Mulliken gross atomic charge
  VA   - Mayer's total valence
  BVA  - Mayer's bonded valence
  FA   - Mayer's free valence

  ATOM       NA         ZA         QA         VA         BVA        FA
  0 C      6.2885     6.0000    -0.2885     3.8934     3.5474     0.3459
  1 C      5.9784     6.0000     0.0216     3.8519     3.5409     0.3110
  2 H      0.8182     1.0000     0.1818     0.9339     0.8942     0.0397
  3 H      0.8015     1.0000     0.1985     0.9307     0.8933     0.0374
  4 C      6.6713     6.0000    -0.6713     3.8906     3.6186     0.2720
  5 H      0.7794     1.0000     0.2206     0.8990     0.8610     0.0380
  6 H      0.7868     1.0000     0.2132     0.9134     0.8758     0.0376
  7 H      0.7831     1.0000     0.2169     0.9024     0.8648     0.0377
  8 N      7.7719     7.0000    -0.7719     3.0243     2.6925     0.3318
  9 H      0.6603     1.0000     0.3397     0.8514     0.8139     0.0376
 10 H      0.6607     1.0000     0.3393     0.8582     0.8198     0.0384

  Mayer bond orders larger than 0.1
B(  0-C ,  1-C ) :   1.6976 B(  0-C ,  2-H ) :   0.9107 B(  0-C ,  4-C ) :   0.9259 
B(  1-C ,  3-H ) :   0.8993 B(  1-C ,  8-N ) :   0.9766 B(  4-C ,  5-H ) :   0.8931 
B(  4-C ,  6-H ) :   0.9100 B(  4-C ,  7-H ) :   0.9046 B(  8-N ,  9-H ) :   0.8166 
B(  8-N , 10-H ) :   0.8189 


----------------------------------
MP2 DERIVATIVE INTEGRAL GENERATION
----------------------------------


Input Wavefunction Amplitudes       ... run.mp2tsaa.tmp.proc0
Input Correlated Electron Density   ... run.pmp2re
Input Energy Weighted Density       ... run.wmp2.tmp
Input SCF Electron Density          ... run.scfp.tmp

One-Electron Terms    ...
                        ... One-Electron Terms done
Prescreening matrices              ... done

Batch handling in the gradient evaluation:
Memory available                      ... 5000.0 MB
Memory per occupied orbital in Q2     ...    1.1 MB
Memory per occupied orbital in Q3     ...    0.0 MB
Total memory requirement per |i>      ...    1.1 MB
Max. Number of orbitals possible      ...   4657
Number of orbitals treated per batch  ...     16
Number of batches to be done          ...      1
Batch   0: i=    0 ...    15

---------------------------------------
MP2 TOTAL ENERGY:     -172.785013235 Eh
---------------------------------------

-----------------------------------
NORM OF THE MP2 GRADIENT:  0.054534
-----------------------------------

-------------------------   --------------------
FINAL SINGLE POINT ENERGY      -172.785013234610
-------------------------   --------------------

------------------------------------------------------------------------------
                         ORCA GEOMETRY RELAXATION STEP
------------------------------------------------------------------------------

Reading the OPT-File                    .... done
Getting information on internals        .... done
Copying old internal coords+grads       .... done
Making the new internal coordinates     .... (new redundants).... done
Validating the new internal coordinates .... (new redundants).... done
Calculating the B-matrix                .... done
Calculating the G,G- and P matrices     .... done
Transforming gradient to internals      .... done
Projecting the internal gradient        .... done
Number of atoms                         ....  11
Number of internal coordinates          ....  39
Current Energy                          ....  -172.785013235 Eh
Current gradient norm                   ....     0.054534364 Eh/bohr
Maximum allowed component of the step   ....  0.300
Current trust radius                    ....  0.300
Evaluating the initial hessian          ....  (Almloef) done
Projecting the Hessian                  .... done
Forming the augmented Hessian           .... done
Diagonalizing the augmented Hessian     .... done
Last element of RFO vector              ....  0.985147696
Lowest eigenvalues of augmented Hessian:
 -0.002898187  0.012588078  0.022551160  0.030464400  0.032311469
Length of the computed step             ....  0.174297829
The final length of the internal step   ....  0.174297829
Converting the step to cartesian space:
 Initial RMS(Int)=    0.0279099896
Transforming coordinates:
 Iter   0:  RMS(Cart)=    0.0409637601 RMS(Int)=    0.0280914169
 Iter   1:  RMS(Cart)=    0.0012580933 RMS(Int)=    0.0008064185
 Iter   2:  RMS(Cart)=    0.0000471875 RMS(Int)=    0.0000284807
 Iter   3:  RMS(Cart)=    0.0000026465 RMS(Int)=    0.0000018307
 Iter   4:  RMS(Cart)=    0.0000001153 RMS(Int)=    0.0000000672
 Iter   5:  RMS(Cart)=    0.0000000062 RMS(Int)=    0.0000000043
done
Storing new coordinates                 .... done

                                .--------------------.
          ----------------------|Geometry convergence|-------------------------
          Item                value                   Tolerance       Converged
          ---------------------------------------------------------------------
          RMS gradient        0.0052899487            0.0001000000      NO
          MAX gradient        0.0217045425            0.0003000000      NO
          RMS step            0.0279099896            0.0020000000      NO
          MAX step            0.0854052053            0.0040000000      NO
          ........................................................
          Max(Bonds)      0.0239      Max(Angles)    0.87
          Max(Dihed)        4.89      Max(Improp)    0.00
          ---------------------------------------------------------------------

The optimization has not yet converged - more geometry cycles are needed


    ---------------------------------------------------------------------------
                         Redundant Internal Coordinates
                            (Angstroem and degrees)

        Definition                    Value    dE/dq     Step     New-Value
    ----------------------------------------------------------------------------
     1. B(C   1,C   0)                1.3611  0.013443 -0.0102    1.3509   
     2. B(H   2,C   0)                1.0891 -0.000821  0.0012    1.0903   
     3. B(H   3,C   1)                1.0939  0.003213 -0.0048    1.0892   
     4. B(C   4,C   0)                1.5033  0.002093 -0.0027    1.5006   
     5. B(H   5,C   4)                1.0962  0.000808 -0.0012    1.0950   
     6. B(H   6,C   4)                1.0950  0.001139 -0.0017    1.0933   
     7. B(H   7,C   4)                1.0947  0.000254 -0.0004    1.0944   
     8. B(N   8,C   1)                1.3648 -0.021705  0.0186    1.3834   
     9. B(H   9,N   8)                1.0071  0.000693 -0.0008    1.0062   
    10. B(H  10,N   8)                1.0288  0.018360 -0.0239    1.0049   
    11. A(H   2,C   0,C   4)          119.30  0.003770   -0.38    118.92   
    12. A(C   1,C   0,C   4)          122.27 -0.002510    0.58    122.85   
    13. A(C   1,C   0,H   2)          117.53 -0.001596    0.54    118.07   
    14. A(H   3,C   1,N   8)          115.06  0.003117   -0.48    114.57   
    15. A(C   0,C   1,N   8)          126.26 -0.002253    0.31    126.57   
    16. A(C   0,C   1,H   3)          118.66 -0.000858    0.16    118.82   
    17. A(H   5,C   4,H   6)          107.51 -0.000202   -0.01    107.50   
    18. A(C   0,C   4,H   6)          110.93  0.000760   -0.14    110.79   
    19. A(H   6,C   4,H   7)          107.37 -0.000453    0.13    107.49   
    20. A(C   0,C   4,H   5)          111.77  0.000136   -0.04    111.72   
    21. A(H   5,C   4,H   7)          107.10  0.000043    0.00    107.10   
    22. A(C   0,C   4,H   7)          111.92 -0.000327    0.08    111.99   
    23. A(H   9,N   8,H  10)          113.75  0.001453   -0.87    112.88   
    24. A(C   1,N   8,H  10)          116.37  0.002694   -0.81    115.56   
    25. A(C   1,N   8,H   9)          115.84 -0.001968   -0.06    115.78   
    26. D(N   8,C   1,C   0,C   4)    166.51 -0.002241    4.44    170.95   
    27. D(N   8,C   1,C   0,H   2)     -2.53 -0.000640    0.06     -2.47   
    28. D(H   3,C   1,C   0,C   4)    -11.57 -0.002546    4.89     -6.67   
    29. D(H   3,C   1,C   0,H   2)    179.39 -0.000946    0.52    179.91   
    30. D(H   6,C   4,C   0,C   1)     16.58  0.001503   -3.06     13.52   
    31. D(H   5,C   4,C   0,H   2)     65.46 -0.001059    1.63     67.09   
    32. D(H   7,C   4,C   0,H   2)    -54.67 -0.000982    1.61    -53.06   
    33. D(H   7,C   4,C   0,C   1)    136.48  0.001227   -2.94    133.53   
    34. D(H   6,C   4,C   0,H   2)   -174.56 -0.000706    1.49   -173.07   
    35. D(H   5,C   4,C   0,C   1)   -103.40  0.001150   -2.92   -106.32   
    36. D(H  10,N   8,C   1,H   3)   -171.88 -0.001580    1.10   -170.78   
    37. D(H  10,N   8,C   1,C   0)      9.99 -0.001813    1.53     11.52   
    38. D(H   9,N   8,C   1,H   3)    -34.17  0.001780   -1.47    -35.64   
    39. D(H   9,N   8,C   1,C   0)    147.69  0.001547   -1.04    146.65   
    ----------------------------------------------------------------------------

         *************************************************************
         *                GEOMETRY OPTIMIZATION CYCLE   2            *
         *************************************************************
---------------------------------
CARTESIAN COORDINATES (ANGSTROEM)
---------------------------------
  C     -0.255750   -0.479151   -0.145509
  C      0.081332   -0.214922    1.135691
  H      0.105922    0.197381   -0.920259
  H     -0.274376   -0.881358    1.920308
  C     -0.977211   -1.729636   -0.554857
  H     -0.312410   -2.430986   -1.069790
  H     -1.386307   -2.245144    0.318149
  H     -1.810093   -1.519033   -1.232768
  N      0.891197    0.815271    1.579227
  H      0.654573    1.201891    2.477587
  H      1.109737    1.519437    0.896428

----------------------------
CARTESIAN COORDINATES (A.U.)
----------------------------
  NO LB      ZA    FRAG     MASS         X           Y           Z
   0 C     6.0000    0    12.011   -0.483298   -0.905464   -0.274972
   1 C     6.0000    0    12.011    0.153696   -0.406145    2.146145
   2 H     1.0000    0     1.008    0.200163    0.372996   -1.739038
   3 H     1.0000    0     1.008   -0.518496   -1.665525    3.628856
   4 C     6.0000    0    12.011   -1.846662   -3.268538   -1.048528
   5 H     1.0000    0     1.008   -0.590370   -4.593897   -2.021611
   6 H     1.0000    0     1.008   -2.619741   -4.242707    0.601214
   7 H     1.0000    0     1.008   -3.420580   -2.870556   -2.329594
   8 N     7.0000    0    14.007    1.684117    1.540639    2.984307
   9 H     1.0000    0     1.008    1.236963    2.271245    4.681962
  10 H     1.0000    0     1.008    2.097100    2.871321    1.694004

--------------------------------
INTERNAL COORDINATES (ANGSTROEM)
--------------------------------
 C      0   0   0     0.000000000000     0.00000000     0.00000000
 C      1   0   0     1.350894305291     0.00000000     0.00000000
 H      1   2   0     1.090293648575   118.02052814     0.00000000
 H      2   1   3     1.089168690758   118.81899512   179.89690748
 C      1   2   3     1.500594648849   122.79803074   173.44549292
 H      5   1   2     1.094992232683   111.72403999   253.69060436
 H      5   1   2     1.093273660230   110.79417409    13.52723742
 H      5   1   2     1.094353233798   111.99492013   133.53958148
 N      2   1   3     1.383438672969   126.56884198   357.51690054
 H      9   2   1     1.006239137637   115.76542676   146.65502814
 H      9   2   1     1.004900541209   115.54867662    11.50945444

---------------------------
INTERNAL COORDINATES (A.U.)
---------------------------
 C      0   0   0     0.000000000000     0.00000000     0.00000000
 C      1   0   0     2.552820272873     0.00000000     0.00000000
 H      1   2   0     2.060356401361   118.02052814     0.00000000
 H      2   1   3     2.058230539173   118.81899512   179.89690748
 C      1   2   3     2.835712924353   122.79803074   173.44549292
 H      5   1   2     2.069235438541   111.72403999   253.69060436
 H      5   1   2     2.065987807265   110.79417409    13.52723742
 H      5   1   2     2.068027905650   111.99492013   133.53958148
 N      2   1   3     2.614320214987   126.56884198   357.51690054
 H      9   2   1     1.901516395367   115.76542676   146.65502814
 H      9   2   1     1.898986814714   115.54867662    11.50945444


Diagonalization of the overlap matrix:
Smallest eigenvalue                        ... 2.128e-03
Time for diagonalization                   ...    0.002 sec
Threshold for overlap eigenvalues          ... 1.000e-08
Number of eigenvalues below threshold      ... 0
Time for construction of square roots      ...    0.001 sec
Total time needed                          ...    0.002 sec

--------------
SCF ITERATIONS
--------------
ITER       Energy         Delta-E        Max-DP      RMS-DP      [F,P]     Damp
               ***  Starting incremental Fock matrix formation  ***
  0   -172.1304476865   0.000000000000 0.00172872  0.00011905  0.0148423 0.7000
                      *** Initiating the SOSCF procedure ***
                      *** Re-Reading the Fockian *** 
                      *** Removing any level shift *** 
ITER      Energy       Delta-E        Grad      Rot      Max-DP    RMS-DP
  1   -172.13085987  -0.0004121847  0.001201  0.001201  0.005856  0.000355
               *** Restarting incremental Fock matrix formation ***
  2   -172.13214020  -0.0012803326  0.001499  0.002120  0.003170  0.000160
  3   -172.13227068  -0.0001304772  0.000517  0.001617  0.001551  0.000108
  4   -172.13229069  -0.0000200115  0.000170  0.000279  0.000408  0.000018
  5   -172.13229150  -0.0000008110  0.000074  0.000135  0.000105  0.000006
  6   -172.13229167  -0.0000001624  0.000027  0.000109  0.000077  0.000004
  7   -172.13229169  -0.0000000267  0.000009  0.000029  0.000017  0.000001
  8   -172.13229169  -0.0000000013  0.000002  0.000003  0.000010  0.000000
  9   -172.13229169  -0.0000000003  0.000001  0.000001  0.000002  0.000000
 10   -172.13229169  -0.0000000000  0.000000  0.000000  0.000001  0.000000
 11   -172.13229169  -0.0000000000  0.000000  0.000000  0.000001  0.000000
 12   -172.13229169  -0.0000000000  0.000000  0.000000  0.000000  0.000000
 13   -172.13229169   0.0000000000  0.000000  0.000000  0.000000  0.000000
 14   -172.13229169  -0.0000000000  0.000000  0.000000  0.000000  0.000000
 15   -172.13229169   0.0000000000  0.000000  0.000000  0.000000  0.000000
                    ***Orbital Rotation convergence achieved***
 16   -172.13229169  -0.0000000000  0.000000  0.000000  0.000000  0.000000
 17   -172.13229169   0.0000000000  0.000000  0.000000  0.000000  0.000000
                           ***RMSP convergence achieved***
                           ***MAXP convergence achieved***
                       ***Gradient convergence achieved***
 18   -172.13229169  -0.0000000000  0.000000  0.000000  0.000000  0.000000
                          ***Energy convergence achieved***
              ***Rediagonalizing the Fockian in SOSCF/NRSCF***

               *****************************************************
               *                     SUCCESS                       *
               *           SCF CONVERGED AFTER  19 CYCLES          *
               *****************************************************

Total Energy       :         -172.13229169 Eh           -4683.95778 eV
  Last Energy change         ...    0.0000e+00  Tolerance :   1.0000e-14
  Last MAX-Density change    ...    0.0000e+00  Tolerance :   1.0000e-14
             **** THE GBW FILE WAS UPDATED (run.gbw) ****
             **** DENSITY FILE WAS UPDATED (run.scfp.tmp) ****
             **** ENERGY FILE WAS UPDATED (run.en.tmp) ****
Total SCF time: 0 days 0 hours 0 min 21 sec 

------------------------------------------------------------------------------
                                ORCA  MP2 
------------------------------------------------------------------------------

MP2 will be done in the AO integral direct mode
The Q1-step will be done using symmetric double matrices
Dimension of the basis                    ...   93
Memory devoted for MP2                    ... 5000 MB   
Memory needed for all in one shot         ...   51 MB
Number of MOs that can be treated together... 1611      
MP2 density construction                  ... relaxed
The MP2 gradient is requested => amplitudes will be stored on disk
Total number of MOs              ...   16
Number of MOs treated per batch  ...   16 
Number of batches necessary      ...    1 
OPERATORS   0/  0 PASS   0
-----------------------------------------------
 MP2 CORRELATION ENERGY   :     -0.654565003 Eh
-----------------------------------------------


---------------------
MP2 DENSITY FORMATION
---------------------

Completing the external part of the density      ... done
Storing the unrelaxed density                    ... done

Calculating G(D)                                 ... done
Completing the Lagrangian                        ... done
Solving the Z-vector equations                   ... 

------------------------------------------------------------------------------
                           ORCA CP-SCF CALCULATION
------------------------------------------------------------------------------

Input orbitals are from        ... run.gbw
Input Perturbation             ... run.pin.tmp
Wavefunction output            ... run.pout.tmp
Perturbation mode              ... Real perturbation
Solver                         ... POPLE
Max. number of iterations      ... 128
Convergence tolerance          ... 1.000e-11
Integral handling              ... Direct
Number of perturbations        ... 1
Number of operators            ... 1
Orbital ranges used for CP-SCF:
 Operator 0:  Orbitals   0... 15  to  16... 92
Variables per vector in CP-SCF ... 1232
Number of vectors sought       ... 1
     CP-SCF ITERATION   0: 
     CP-SCF ITERATION   1:      0.000348036289
     CP-SCF ITERATION   2:      0.000018228599
     CP-SCF ITERATION   3:      0.000002185710
     CP-SCF ITERATION   4:      0.000000168113
     CP-SCF ITERATION   5:      0.000000015344
     CP-SCF ITERATION   6:      0.000000001701
     CP-SCF ITERATION   7:      0.000000000172
     CP-SCF ITERATION   8:      0.000000000009
                                                 ... done
Finalizing the relaxed density                   ... done
Transforming P to the AO basis                   ... done
Storing the relaxed density                      ... done

------------------------------------
ENERGY WEIGHTED DENSITY FINALIZATION
------------------------------------

Gathering the parts of the W-matrix              ...                                                      done
Forming the Z-density                            ... done
Transforming Z to the AO basis                   ... done
Calculating G(Z)                                 ... done
Finalizing the W-matrix                          ...                                                      done
Transforming W to the AO basis and storing       ... done

----------------------------------
MP2 DERIVATIVE INTEGRAL GENERATION
----------------------------------


Input Wavefunction Amplitudes       ... run.mp2tsaa.tmp.proc0
Input Correlated Electron Density   ... run.pmp2re
Input Energy Weighted Density       ... run.wmp2.tmp
Input SCF Electron Density          ... run.scfp.tmp

One-Electron Terms    ...
                        ... One-Electron Terms done
Prescreening matrices              ... done

Batch handling in the gradient evaluation:
Memory available                      ... 5000.0 MB
Memory per occupied orbital in Q2     ...    1.1 MB
Memory per occupied orbital in Q3     ...    0.0 MB
Total memory requirement per |i>      ...    1.1 MB
Max. Number of orbitals possible      ...   4657
Number of orbitals treated per batch  ...     16
Number of batches to be done          ...      1
Batch   0: i=    0 ...    15

---------------------------------------
MP2 TOTAL ENERGY:     -172.786856697 Eh
---------------------------------------

-----------------------------------
NORM OF THE MP2 GRADIENT:  0.021022
-----------------------------------

-------------------------   --------------------
FINAL SINGLE POINT ENERGY      -172.786856697499
-------------------------   --------------------

------------------------------------------------------------------------------
                         ORCA GEOMETRY RELAXATION STEP
------------------------------------------------------------------------------

Reading the OPT-File                    .... done
Getting information on internals        .... done
Copying old internal coords+grads       .... done
Making the new internal coordinates     .... (new redundants).... done
Validating the new internal coordinates .... (new redundants).... done
Calculating the B-matrix                .... done
Calculating the G,G- and P matrices     .... done
Transforming gradient to internals      .... done
Projecting the internal gradient        .... done
Number of atoms                         ....  11
Number of internal coordinates          ....  39
Current Energy                          ....  -172.786856697 Eh
Current gradient norm                   ....     0.021021661 Eh/bohr
Maximum allowed component of the step   ....  0.300
Current trust radius                    ....  0.300
Updating the Hessian (BFGS)             .... done
Forming the augmented Hessian           .... done
Diagonalizing the augmented Hessian     .... done
Last element of RFO vector              ....  0.987993278
Lowest eigenvalues of augmented Hessian:
 -0.000829470  0.012412770  0.019903661  0.030449987  0.031543831
Length of the computed step             ....  0.156374413
The final length of the internal step   ....  0.156374413
Converting the step to cartesian space:
 Initial RMS(Int)=    0.0250399461
Transforming coordinates:
 Iter   0:  RMS(Cart)=    0.0302183609 RMS(Int)=    1.0054144014
 Iter   1:  RMS(Cart)=    0.0008741779 RMS(Int)=    0.0005304922
 Iter   2:  RMS(Cart)=    0.0000327557 RMS(Int)=    0.0000220518
 Iter   3:  RMS(Cart)=    0.0000016216 RMS(Int)=    0.0000009547
 Iter   4:  RMS(Cart)=    0.0000000623 RMS(Int)=    0.0000000398
done
Storing new coordinates                 .... done

                                .--------------------.
          ----------------------|Geometry convergence|-------------------------
          Item                value                   Tolerance       Converged
          ---------------------------------------------------------------------
          Energy change      -0.0018434629            0.0000050000      NO
          RMS gradient        0.0017988049            0.0001000000      NO
          MAX gradient        0.0072543509            0.0003000000      NO
          RMS step            0.0250399461            0.0020000000      NO
          MAX step            0.0707688042            0.0040000000      NO
          ........................................................
          Max(Bonds)      0.0119      Max(Angles)    1.03
          Max(Dihed)        4.05      Max(Improp)    0.00
          ---------------------------------------------------------------------

The optimization has not yet converged - more geometry cycles are needed


    ---------------------------------------------------------------------------
                         Redundant Internal Coordinates
                            (Angstroem and degrees)

        Definition                    Value    dE/dq     Step     New-Value
    ----------------------------------------------------------------------------
     1. B(C   1,C   0)                1.3509  0.005442 -0.0075    1.3434   
     2. B(H   2,C   0)                1.0903 -0.000025  0.0003    1.0906   
     3. B(H   3,C   1)                1.0892  0.000116 -0.0011    1.0881   
     4. B(C   4,C   0)                1.5006  0.000536 -0.0014    1.4992   
     5. B(H   5,C   4)                1.0950 -0.000055 -0.0001    1.0949   
     6. B(H   6,C   4)                1.0933  0.000050 -0.0004    1.0929   
     7. B(H   7,C   4)                1.0944  0.000222 -0.0005    1.0938   
     8. B(N   8,C   1)                1.3834 -0.007254  0.0119    1.3953   
     9. B(H   9,N   8)                1.0062 -0.000031 -0.0001    1.0061   
    10. B(H  10,N   8)                1.0049 -0.002527  0.0001    1.0050   
    11. A(H   2,C   0,C   4)          118.86  0.002781   -0.56    118.30   
    12. A(C   1,C   0,C   4)          122.80 -0.001210    0.47    123.27   
    13. A(C   1,C   0,H   2)          118.02 -0.001664    0.63    118.65   
    14. A(H   3,C   1,N   8)          114.57  0.001970   -0.53    114.04   
    15. A(C   0,C   1,N   8)          126.57 -0.000135    0.07    126.64   
    16. A(C   0,C   1,H   3)          118.82 -0.001813    0.41    119.23   
    17. A(H   5,C   4,H   6)          107.50  0.000003    0.02    107.52   
    18. A(C   0,C   4,H   6)          110.79  0.000170   -0.05    110.74   
    19. A(H   6,C   4,H   7)          107.49 -0.000394    0.13    107.62   
    20. A(C   0,C   4,H   5)          111.72 -0.000369    0.08    111.80   
    21. A(H   5,C   4,H   7)          107.10 -0.000002   -0.03    107.07   
    22. A(C   0,C   4,H   7)          111.99  0.000565   -0.13    111.86   
    23. A(H   9,N   8,H  10)          112.86 -0.000199   -0.83    112.03   
    24. A(C   1,N   8,H  10)          115.55  0.001910   -1.03    114.52   
    25. A(C   1,N   8,H   9)          115.77  0.000873   -0.66    115.11   
    26. D(N   8,C   1,C   0,C   4)    170.96 -0.000457    2.34    173.30   
    27. D(N   8,C   1,C   0,H   2)     -2.48  0.000315   -1.33     -3.82   
    28. D(H   3,C   1,C   0,C   4)     -6.66 -0.001199    4.05     -2.60   
    29. D(H   3,C   1,C   0,H   2)    179.90 -0.000428    0.38    180.28   
    30. D(H   6,C   4,C   0,C   1)     13.53  0.000733   -3.40     10.13   
    31. D(H   5,C   4,C   0,H   2)     67.08 -0.000198    0.40     67.48   
    32. D(H   7,C   4,C   0,H   2)    -53.07 -0.000330    0.48    -52.59   
    33. D(H   7,C   4,C   0,C   1)    133.54  0.000728   -3.36    130.18   
    34. D(H   6,C   4,C   0,H   2)   -173.08 -0.000325    0.44   -172.64   
    35. D(H   5,C   4,C   0,C   1)   -106.31  0.000860   -3.44   -109.75   
    36. D(H  10,N   8,C   1,H   3)   -170.78 -0.001234    1.16   -169.62   
    37. D(H  10,N   8,C   1,C   0)     11.51 -0.001873    2.81     14.32   
    38. D(H   9,N   8,C   1,H   3)    -35.64  0.001687   -2.34    -37.98   
    39. D(H   9,N   8,C   1,C   0)    146.66  0.001048   -0.69    145.96   
    ----------------------------------------------------------------------------

         *************************************************************
         *                GEOMETRY OPTIMIZATION CYCLE   3            *
         *************************************************************
---------------------------------
CARTESIAN COORDINATES (ANGSTROEM)
---------------------------------
  C     -0.221900   -0.500681   -0.142950
  C      0.088956   -0.222728    1.134118
  H      0.130378    0.173943   -0.924042
  H     -0.253488   -0.890869    1.921652
  C     -0.978864   -1.727492   -0.554623
  H     -0.341393   -2.437559   -1.091467
  H     -1.383362   -2.244114    0.319353
  H     -1.817433   -1.486460   -1.214310
  N      0.896300    0.821662    1.586122
  H      0.625877    1.216565    2.471127
  H      1.081541    1.531483    0.899226

----------------------------
CARTESIAN COORDINATES (A.U.)
----------------------------
  NO LB      ZA    FRAG     MASS         X           Y           Z
   0 C     6.0000    0    12.011   -0.419329   -0.946150   -0.270136
   1 C     6.0000    0    12.011    0.168103   -0.420895    2.143173
   2 H     1.0000    0     1.008    0.246379    0.328705   -1.746186
   3 H     1.0000    0     1.008   -0.479023   -1.683498    3.631396
   4 C     6.0000    0    12.011   -1.849785   -3.264486   -1.048085
   5 H     1.0000    0     1.008   -0.645139   -4.606319   -2.062574
   6 H     1.0000    0     1.008   -2.614176   -4.240761    0.603490
   7 H     1.0000    0     1.008   -3.434450   -2.809003   -2.294713
   8 N     7.0000    0    14.007    1.693761    1.552717    2.997336
   9 H     1.0000    0     1.008    1.182736    2.298975    4.669753
  10 H     1.0000    0     1.008    2.043815    2.894084    1.699292

--------------------------------
INTERNAL COORDINATES (ANGSTROEM)
--------------------------------
 C      0   0   0     0.000000000000     0.00000000     0.00000000
 C      1   0   0     1.343425736640     0.00000000     0.00000000
 H      1   2   0     1.090560416987   118.56265259     0.00000000
 H      2   1   3     1.088066868722   119.22016566   180.25300313
[...]
Integral handling              ... Direct
Number of perturbations        ... 1
Number of operators            ... 1
Orbital ranges used for CP-SCF:
 Operator 0:  Orbitals   0... 15  to  16... 92
Variables per vector in CP-SCF ... 1232
Number of vectors sought       ... 1
     CP-SCF ITERATION   0: 
     CP-SCF ITERATION   1:      0.000339236757
     CP-SCF ITERATION   2:      0.000017276148
     CP-SCF ITERATION   3:      0.000001687715
     CP-SCF ITERATION   4:      0.000000173338
     CP-SCF ITERATION   5:      0.000000015276
     CP-SCF ITERATION   6:      0.000000002002
     CP-SCF ITERATION   7:      0.000000000171
     CP-SCF ITERATION   8:      0.000000000008
                                                 ... done
Finalizing the relaxed density                   ... done
Transforming P to the AO basis                   ... done
Storing the relaxed density                      ... done

------------------------------------
ENERGY WEIGHTED DENSITY FINALIZATION
------------------------------------

Gathering the parts of the W-matrix              ...                                                      done
Forming the Z-density                            ... done
Transforming Z to the AO basis                   ... done
Calculating G(Z)                                 ... done
Finalizing the W-matrix                          ...                                                      done
Transforming W to the AO basis and storing       ... done

                *********************************************
                * UNRELAXED MP2 DENSITY POPULATION ANALYSIS *
                *********************************************

------------------------------------------------------------------------------
                           ORCA POPULATION ANALYSIS
------------------------------------------------------------------------------
Input electron density              ... run.pmp2ur
BaseName (.gbw .S,...)              ... run

                    ********************************
                    * MULLIKEN POPULATION ANALYSIS *
                    ********************************

-----------------------
MULLIKEN ATOMIC CHARGES
-----------------------
   0 C :   -0.308790
   1 C :    0.034002
   2 H :    0.194626
   3 H :    0.215431
   4 C :   -0.621202
   5 H :    0.209979
   6 H :    0.205895
   7 H :    0.207055
   8 N :   -0.817431
   9 H :    0.338096
  10 H :    0.342338
Sum of atomic charges:   -0.0000000

--------------------------------
MULLIKEN REDUCED ORBITAL CHARGES
--------------------------------
  0 C s       :     3.211323  s :     3.211323
      pz      :     0.937905  p :     3.006660
      px      :     1.067828
      py      :     1.000927
      dz2     :     0.018983  d :     0.090808
      dxz     :     0.020410
      dyz     :     0.028605
      dx2y2   :     0.010406
      dxy     :     0.012404
  1 C s       :     3.098810  s :     3.098810
      pz      :     1.004890  p :     2.749218
      px      :     0.883558
      py      :     0.860770
      dz2     :     0.021655  d :     0.117970
      dxz     :     0.026724
      dyz     :     0.033602
      dx2y2   :     0.019302
      dxy     :     0.016687
  2 H s       :     0.805374  s :     0.805374
  3 H s       :     0.784569  s :     0.784569
  4 C s       :     3.354484  s :     3.354484
      pz      :     1.118966  p :     3.173936
      px      :     1.058651
      py      :     0.996319
      dz2     :     0.010078  d :     0.092782
      dxz     :     0.023162
      dyz     :     0.023255
      dx2y2   :     0.015497
      dxy     :     0.020790
  5 H s       :     0.790021  s :     0.790021
  6 H s       :     0.794105  s :     0.794105
  7 H s       :     0.792945  s :     0.792945
  8 N s       :     3.658285  s :     3.658285
      pz      :     1.226033  p :     4.103671
      px      :     1.633449
      py      :     1.244189
      dz2     :     0.008229  d :     0.055475
      dxz     :     0.009635
      dyz     :     0.018507
      dx2y2   :     0.008848
      dxy     :     0.010256
  9 H s       :     0.661904  s :     0.661904
 10 H s       :     0.657662  s :     0.657662


                     *******************************
                     * LOEWDIN POPULATION ANALYSIS *
                     *******************************

----------------------
LOEWDIN ATOMIC CHARGES
----------------------
   0 C :   -0.211964
   1 C :   -0.100622
   2 H :    0.098938
   3 H :    0.105151
   4 C :   -0.281156
   5 H :    0.103458
   6 H :    0.103243
   7 H :    0.101848
   8 N :   -0.330325
   9 H :    0.206220
  10 H :    0.205211

-------------------------------
LOEWDIN REDUCED ORBITAL CHARGES
-------------------------------
  0 C s       :     2.843686  s :     2.843686
      pz      :     1.087461  p :     3.211396
      px      :     1.066105
      py      :     1.057830
      dz2     :     0.039007  d :     0.156881
      dxz     :     0.032117
      dyz     :     0.048260
      dx2y2   :     0.017154
      dxy     :     0.020344
  1 C s       :     2.838107  s :     2.838107
      pz      :     1.114397  p :     3.043585
      px      :     0.959382
      py      :     0.969806
      dz2     :     0.042801  d :     0.218930
      dxz     :     0.046954
      dyz     :     0.058668
      dx2y2   :     0.037608
      dxy     :     0.032898
  2 H s       :     0.901062  s :     0.901062
  3 H s       :     0.894849  s :     0.894849
  4 C s       :     2.881468  s :     2.881468
      pz      :     1.095369  p :     3.263148
      px      :     1.090372
      py      :     1.077408
      dz2     :     0.013602  d :     0.136540
      dxz     :     0.031856
      dyz     :     0.034307
      dx2y2   :     0.024965
      dxy     :     0.031811
  5 H s       :     0.896542  s :     0.896542
  6 H s       :     0.896757  s :     0.896757
  7 H s       :     0.898152  s :     0.898152
  8 N s       :     3.155719  s :     3.155719
      pz      :     1.208208  p :     4.101656
      px      :     1.625539
      py      :     1.267909
      dz2     :     0.011039  d :     0.072950
      dxz     :     0.011560
      dyz     :     0.024536
      dx2y2   :     0.011004
      dxy     :     0.014811
  9 H s       :     0.793780  s :     0.793780
 10 H s       :     0.794789  s :     0.794789


                      *****************************
                      * MAYER POPULATION ANALYSIS *
                      *****************************

  NA   - Mulliken gross atomic population
  ZA   - Total nuclear charge
  QA   - Mulliken gross atomic charge
  VA   - Mayer's total valence
  BVA  - Mayer's bonded valence
  FA   - Mayer's free valence

  ATOM       NA         ZA         QA         VA         BVA        FA
  0 C      6.3088     6.0000    -0.3088     3.8544     3.5060     0.3484
  1 C      5.9660     6.0000     0.0340     3.8224     3.5003     0.3221
  2 H      0.8054     1.0000     0.1946     0.9333     0.8935     0.0399
  3 H      0.7846     1.0000     0.2154     0.9264     0.8887     0.0376
  4 C      6.6212     6.0000    -0.6212     3.8748     3.6011     0.2737
  5 H      0.7900     1.0000     0.2100     0.9040     0.8655     0.0385
  6 H      0.7941     1.0000     0.2059     0.9188     0.8808     0.0380
  7 H      0.7929     1.0000     0.2071     0.9056     0.8672     0.0384
  8 N      7.8174     7.0000    -0.8174     2.8974     2.5608     0.3366
  9 H      0.6619     1.0000     0.3381     0.8523     0.8140     0.0383
 10 H      0.6577     1.0000     0.3423     0.8542     0.8161     0.0381

  Mayer bond orders larger than 0.1
B(  0-C ,  1-C ) :   1.7423 B(  0-C ,  2-H ) :   0.9169 B(  0-C ,  4-C ) :   0.9021 
B(  1-C ,  3-H ) :   0.9046 B(  1-C ,  8-N ) :   0.8984 B(  4-C ,  5-H ) :   0.9037 
B(  4-C ,  6-H ) :   0.9196 B(  4-C ,  7-H ) :   0.9074 B(  8-N ,  9-H ) :   0.8172 
B(  8-N , 10-H ) :   0.8206 


                *******************************************
                * RELAXED MP2 DENSITY POPULATION ANALYSIS *
                *******************************************

------------------------------------------------------------------------------
                           ORCA POPULATION ANALYSIS
------------------------------------------------------------------------------
Input electron density              ... run.pmp2re
BaseName (.gbw .S,...)              ... run

                    ********************************
                    * MULLIKEN POPULATION ANALYSIS *
                    ********************************

-----------------------
MULLIKEN ATOMIC CHARGES
-----------------------
   0 C :   -0.269350
   1 C :   -0.002057
   2 H :    0.185990
   3 H :    0.203862
   4 C :   -0.675309
   5 H :    0.222281
   6 H :    0.215977
   7 H :    0.219661
   8 N :   -0.769279
   9 H :    0.334178
  10 H :    0.334047
Sum of atomic charges:   -0.0000000

--------------------------------
MULLIKEN REDUCED ORBITAL CHARGES
--------------------------------
  0 C s       :     3.195689  s :     3.195689
      pz      :     0.935882  p :     2.992692
      px      :     1.061058
      py      :     0.995751
      dz2     :     0.016913  d :     0.080969
      dxz     :     0.017396
      dyz     :     0.025335
      dx2y2   :     0.010105
      dxy     :     0.011221
  1 C s       :     3.100285  s :     3.100285
      pz      :     0.998013  p :     2.795699
      px      :     0.917399
      py      :     0.880287
      dz2     :     0.019370  d :     0.106073
      dxz     :     0.023327
      dyz     :     0.029905
      dx2y2   :     0.018315
      dxy     :     0.015155
  2 H s       :     0.814010  s :     0.814010
  3 H s       :     0.796138  s :     0.796138
  4 C s       :     3.347498  s :     3.347498
      pz      :     1.141312  p :     3.246426
      px      :     1.082971
      py      :     1.022144
      dz2     :     0.008933  d :     0.081384
      dxz     :     0.019886
      dyz     :     0.020334
      dx2y2   :     0.014589
      dxy     :     0.017643
  5 H s       :     0.777719  s :     0.777719
  6 H s       :     0.784023  s :     0.784023
  7 H s       :     0.780339  s :     0.780339
  8 N s       :     3.635003  s :     3.635003
      pz      :     1.224037  p :     4.082374
      px      :     1.616448
      py      :     1.241889
      dz2     :     0.007598  d :     0.051902
      dxz     :     0.009110
      dyz     :     0.016716
      dx2y2   :     0.009030
      dxy     :     0.009448
  9 H s       :     0.665822  s :     0.665822
 10 H s       :     0.665953  s :     0.665953


                     *******************************
                     * LOEWDIN POPULATION ANALYSIS *
                     *******************************

----------------------
LOEWDIN ATOMIC CHARGES
----------------------
   0 C :   -0.210370
   1 C :   -0.127704
   2 H :    0.103562
   3 H :    0.107302
   4 C :   -0.314834
   5 H :    0.114653
   6 H :    0.113571
   7 H :    0.113236
   8 N :   -0.315887
   9 H :    0.209614
  10 H :    0.206857

-------------------------------
LOEWDIN REDUCED ORBITAL CHARGES
-------------------------------
  0 C s       :     2.846411  s :     2.846411
      pz      :     1.091000  p :     3.214316
      px      :     1.065565
      py      :     1.057751
      dz2     :     0.037416  d :     0.149643
      dxz     :     0.029877
      dyz     :     0.045900
      dx2y2   :     0.017044
      dxy     :     0.019405
  1 C s       :     2.840258  s :     2.840258
      pz      :     1.112625  p :     3.077762
      px      :     0.982262
      py      :     0.982874
      dz2     :     0.041618  d :     0.209684
      dxz     :     0.044486
      dyz     :     0.055760
      dx2y2   :     0.036196
      dxy     :     0.031624
  2 H s       :     0.896438  s :     0.896438
  3 H s       :     0.892698  s :     0.892698
  4 C s       :     2.883976  s :     2.883976
      pz      :     1.111129  p :     3.305766
      px      :     1.104854
      py      :     1.089783
      dz2     :     0.012450  d :     0.125092
      dxz     :     0.028643
      dyz     :     0.031397
      dx2y2   :     0.024055
      dxy     :     0.028547
  5 H s       :     0.885347  s :     0.885347
  6 H s       :     0.886429  s :     0.886429
  7 H s       :     0.886764  s :     0.886764
  8 N s       :     3.154387  s :     3.154387
      pz      :     1.213157  p :     4.091626
      px      :     1.609348
      py      :     1.269121
      dz2     :     0.010439  d :     0.069874
      dxz     :     0.011067
      dyz     :     0.023062
      dx2y2   :     0.011334
      dxy     :     0.013972
  9 H s       :     0.790386  s :     0.790386
 10 H s       :     0.793143  s :     0.793143


                      *****************************
                      * MAYER POPULATION ANALYSIS *
                      *****************************

  NA   - Mulliken gross atomic population
  ZA   - Total nuclear charge
  QA   - Mulliken gross atomic charge
  VA   - Mayer's total valence
  BVA  - Mayer's bonded valence
  FA   - Mayer's free valence

  ATOM       NA         ZA         QA         VA         BVA        FA
  0 C      6.2694     6.0000    -0.2694     3.8925     3.5528     0.3397
  1 C      6.0021     6.0000    -0.0021     3.8715     3.5581     0.3134
  2 H      0.8140     1.0000     0.1860     0.9327     0.8933     0.0393
  3 H      0.7961     1.0000     0.2039     0.9283     0.8913     0.0370
  4 C      6.6753     6.0000    -0.6753     3.8883     3.6172     0.2712
  5 H      0.7777     1.0000     0.2223     0.8995     0.8618     0.0377
  6 H      0.7840     1.0000     0.2160     0.9137     0.8764     0.0372
  7 H      0.7803     1.0000     0.2197     0.9012     0.8635     0.0377
  8 N      7.7693     7.0000    -0.7693     2.9906     2.6606     0.3301
  9 H      0.6658     1.0000     0.3342     0.8532     0.8151     0.0381
 10 H      0.6660     1.0000     0.3340     0.8582     0.8203     0.0379

  Mayer bond orders larger than 0.1
B(  0-C ,  1-C ) :   1.7261 B(  0-C ,  2-H ) :   0.9093 B(  0-C ,  4-C ) :   0.9245 
B(  1-C ,  3-H ) :   0.8982 B(  1-C ,  8-N ) :   0.9579 B(  4-C ,  5-H ) :   0.8962 
B(  4-C ,  6-H ) :   0.9104 B(  4-C ,  7-H ) :   0.9001 B(  8-N ,  9-H ) :   0.8168 
B(  8-N , 10-H ) :   0.8210 


----------------------------------
MP2 DERIVATIVE INTEGRAL GENERATION
----------------------------------


Input Wavefunction Amplitudes       ... run.mp2tsaa.tmp.proc0
Input Correlated Electron Density   ... run.pmp2re
Input Energy Weighted Density       ... run.wmp2.tmp
Input SCF Electron Density          ... run.scfp.tmp

One-Electron Terms    ...
                        ... One-Electron Terms done
Prescreening matrices              ... done

Batch handling in the gradient evaluation:
Memory available                      ... 5000.0 MB
Memory per occupied orbital in Q2     ...    1.1 MB
Memory per occupied orbital in Q3     ...    0.0 MB
Total memory requirement per |i>      ...    1.1 MB
Max. Number of orbitals possible      ...   4657
Number of orbitals treated per batch  ...     16
Number of batches to be done          ...      1
Batch   0: i=    0 ...    15

---------------------------------------
MP2 TOTAL ENERGY:     -172.787703160 Eh
---------------------------------------

-----------------------------------
NORM OF THE MP2 GRADIENT:  0.000293
-----------------------------------

-------------------------   --------------------
FINAL SINGLE POINT ENERGY      -172.787703160121
-------------------------   --------------------

                                *** OPTIMIZATION RUN DONE ***

                            ***************************************
                            *     ORCA property calculations      *
                            ***************************************

                                    ---------------------
                                    Active property flags
                                    ---------------------
   (+) Dipole Moment


------------------------------------------------------------------------------
                       ORCA ELECTRIC PROPERTIES CALCULATION
------------------------------------------------------------------------------

Dipole Moment Calculation                       ... on
Quadrupole Moment Calculation                   ... off
Polarizability Calculation                      ... off
GBWName                                         ... run.gbw
Electron density file                           ... run.scfp.tmp
The origin for moment calculation is the CENTER OF MASS  = (-0.078241, -0.738954  0.998293)

-------------
DIPOLE MOMENT
-------------
                                X             Y             Z
Electronic contribution:      1.30657       1.72828       1.43633
Nuclear contribution   :     -1.59236      -1.28800      -1.25322
                        -----------------------------------------
Total Dipole Moment    :     -0.28579       0.44028       0.18310
                        -----------------------------------------
Magnitude (a.u.)       :      0.55592
Magnitude (Debye)      :      1.41304


                         *** MP2 UNRELAXED DENSITY ***

------------------------------------------------------------------------------
                       ORCA ELECTRIC PROPERTIES CALCULATION
------------------------------------------------------------------------------

Dipole Moment Calculation                       ... on
Quadrupole Moment Calculation                   ... off
Polarizability Calculation                      ... off
GBWName                                         ... run.gbw
Electron density file                           ... run.pmp2ur
The origin for moment calculation is the CENTER OF MASS  = (-0.078241, -0.738954  0.998293)

-------------
DIPOLE MOMENT
-------------
                                X             Y             Z
Electronic contribution:      1.31211       1.73095       1.43394
Nuclear contribution   :     -1.59236      -1.28800      -1.25322
                        -----------------------------------------
Total Dipole Moment    :     -0.28026       0.44294       0.18072
                        -----------------------------------------
Magnitude (a.u.)       :      0.55444
Magnitude (Debye)      :      1.40927


                           *** MP2 RELAXED DENSITY ***

------------------------------------------------------------------------------
                       ORCA ELECTRIC PROPERTIES CALCULATION
------------------------------------------------------------------------------

Dipole Moment Calculation                       ... on
Quadrupole Moment Calculation                   ... off
Polarizability Calculation                      ... off
GBWName                                         ... run.gbw
Electron density file                           ... run.pmp2re
The origin for moment calculation is the CENTER OF MASS  = (-0.078241, -0.738954  0.998293)

-------------
DIPOLE MOMENT
-------------
                                X             Y             Z
Electronic contribution:      1.33590       1.75610       1.42828
Nuclear contribution   :     -1.59236      -1.28800      -1.25322
                        -----------------------------------------
Total Dipole Moment    :     -0.25647       0.46809       0.17505
                        -----------------------------------------
Magnitude (a.u.)       :      0.56172
Magnitude (Debye)      :      1.42778


Timings for individual modules:

Sum of individual times         ...      366.396 sec (=   6.107 min)
GTO integral calculation        ...        2.860 sec (=   0.048 min)   0.8 %
SCF iterations                  ...      166.866 sec (=   2.781 min)  45.5 %
MP2 module                      ...      196.352 sec (=   3.273 min)  53.6 %
Geometry relaxation             ...        0.318 sec (=   0.005 min)   0.1 %
                             ****ORCA TERMINATED NORMALLY****
TOTAL RUN TIME: 0 days 0 hours 6 minutes 6 seconds 927 msec
