
                                 *****************
                                 * O   R   C   A *
                                 *****************

           --- An Ab Initio, DFT and Semiempirical electronic structure package ---

                  #######################################################
                  #                        -***-                        #
                  #  Department of molecular theory and spectroscopy    #
                  #              Directorship: Frank Neese              #
                  # Max Planck Institute for Chemical Energy Conversion #
                  #                  D-45470 Muelheim/Ruhr              #
                  #                       Germany                       #
                  #                                                     #
                  #                  All rights reserved                #
                  #                        -***-                        #
                  #######################################################


                         Program Version 4.0.1.2 - RELEASE -


 With contributions from (in alphabetic order):
   Daniel Aravena         : Magnetic Properties
   Michael Atanasov       : Ab Initio Ligand Field Theory
   Ute Becker             : Parallelization
   Martin Brehm           : Molecular dynamics
   Dmytro Bykov           : SCF Hessian
   Vijay G. Chilkuri      : MRCI spin determinant printing
   Dipayan Datta          : RHF DLPNO-CCSD density
   Achintya Kumar Dutta   : EOM-CC, STEOM-CC
   Dmitry Ganyushin       : Spin-Orbit,Spin-Spin,Magnetic field MRCI
   Yang Guo               : DLPNO-NEVPT2, CIM, IAO-localization
   Andreas Hansen         : Spin unrestricted coupled pair/coupled cluster methods
   Lee Huntington         : MR-EOM, pCC
   Robert Izsak           : Overlap fitted RIJCOSX, COSX-SCS-MP3, EOM
   Christian Kollmar      : KDIIS, OOCD, Brueckner-CCSD(T), CCSD density
   Simone Kossmann        : Meta GGA functionals, TD-DFT gradient, OOMP2, MP2 Hessian
   Martin Krupicka        : AUTO-CI
   Dagmar Lenk            : GEPOL surface
   Dimitrios Liakos       : Extrapolation schemes; parallel MDCI
   Dimitrios Manganas     : ROCIS; embedding schemes
   Dimitrios Pantazis     : SARC Basis sets
   Taras Petrenko         : DFT Hessian,TD-DFT gradient, ASA, ECA, R-Raman, ABS, FL, XAS/XES, NRVS
   Peter Pinski           : DLPNO-MP2
   Christoph Reimann      : Effective Core Potentials
   Marius Retegan         : Local ZFS, SOC
   Christoph Riplinger    : Optimizer, TS searches, QM/MM, DLPNO-CCSD(T), (RO)-DLPNO pert. Triples
   Tobias Risthaus        : Range-separated hybrids, TD-DFT gradient, RPA, STAB
   Michael Roemelt        : Restricted open shell CIS
   Masaaki Saitow         : Open-shell DLPNO
   Barbara Sandhoefer     : DKH picture change effects
   Kantharuban Sivalingam : CASSCF convergence, NEVPT2, FIC-MRCI
   Georgi Stoychev        : AutoAux
   Boris Wezisla          : Elementary symmetry handling
   Frank Wennmohs         : Technical directorship


 We gratefully acknowledge several colleagues who have allowed us to
 interface, adapt or use parts of their codes:
   Stefan Grimme, W. Hujo, H. Kruse,             : VdW corrections, initial TS optimization,
                  C. Bannwarth                     DFT functionals, gCP, sTDA/sTD-DF
   Ed Valeev                                     : LibInt (2-el integral package), F12 methods
   Garnet Chan, S. Sharma, J. Yang, R. Olivares  : DMRG
   Ulf Ekstrom                                   : XCFun DFT Library
   Mihaly Kallay                                 : mrcc  (arbitrary order and MRCC methods)
   Andreas Klamt, Michael Diedenhofen            : otool_cosmo (COSMO solvation model)
   Jiri Pittner, Ondrej Demel                    : Mk-CCSD
   Frank Weinhold                                : gennbo (NPA and NBO analysis)
   Christopher J. Cramer and Donald G. Truhlar   : smd solvation model


 Your calculation uses the libint2 library for the computation of 2-el integrals
 For citations please refer to: http://libint.valeyev.net

 This ORCA versions uses:
   CBLAS   interface :  Fast vector & matrix operations
   LAPACKE interface :  Fast linear algebra routines
   SCALAPACK package :  Parallel linear algebra routines




*****************************************
The coordinations will be read from file: inp.xyz
*****************************************


Your calculation utilizes the basis: 6-311G(d)
   H, Li - Ne  : R. Krishnan, J. S. Binkley, R. Seeger and J. A. Pople, J. Chem. Phys. 72, 650 (1980).
   Na - Ar     : A. D. McLean and G. S. Chandler J. Chem. Phys. 72, 5639, (1980).
   K  - Ca     : J.-P. Blaudeau, M. P. McGrath, L. A. Curtiss and L. Radom, J. Chem. Phys. 107, 5016 (1997).
   Ga - Kr     : L. A. Curtiss, M. P. McGrath, J.-P. Blandeau, N. E. Davis, R. C. Binning and L. Radom, J. Chem. Phys. 103, 6104 (1995).
   Pol./Diff.
   H, Li - Cl  : T. Clark, J. Chandrasekhar and P. v. R. Schleyer, J. Comp. Chem. 4, 294 (1983).
   H - Ne      : M. J. Frisch, J. A. Pople and J. S. Binkley, J. Chem. Phys. 80, 3265 (1984).

================================================================================
                                        WARNINGS
                       Please study these warnings very carefully!
================================================================================

Warning: TCutStore was < 0. Adjusted to Thresh (uncritical)

WARNING: TCut can not be >=Thresh
  ===> : TCut is set to 0.01*Thresh

WARNING: Geometry Optimization
  ===> : Switching off AutoStart
         For restart on a previous wavefunction, please use MOREAD

WARNING: Post HF methods need fully converged wavefunctions
  ===> : Setting SCFConvForced true
         You can overwrite this default with %scf ConvForced false 


INFO   : the flag for use of LIBINT has been found!

================================================================================
                                       INPUT FILE
================================================================================
NAME = run.inp
|  1> ! MP2 6-311G(d) OptTS NoFrozenCore ExtremeSCF
|  2> 
|  3> %pal nprocs 1
|  4> end
|  5> 
|  6> %mp2 MaxCore 5000
|  7> end
|  8> 
|  9> *xyzfile -1 1 inp.xyz 
| 10> 
| 11>                          ****END OF INPUT****
================================================================================

                       *****************************
                       * Geometry Optimization Run *
                       *****************************

Geometry optimization settings:
Update method            Update   .... Bofill
Choice of coordinates    CoordSys .... Redundant Internals
Initial Hessian          InHess   .... Almoef's Model

Convergence Tolerances:
Energy Change            TolE     ....  5.0000e-06 Eh
Max. Gradient            TolMAXG  ....  3.0000e-04 Eh/bohr
RMS Gradient             TolRMSG  ....  1.0000e-04 Eh/bohr
Max. Displacement        TolMAXD  ....  4.0000e-03 bohr
RMS Displacement         TolRMSD  ....  2.0000e-03 bohr

------------------------------------------------------------------------------
                        ORCA OPTIMIZATION COORDINATE SETUP
------------------------------------------------------------------------------

The optimization will be done in new redundant internal coordinates
Making redundant internal coordinates   ...  (new redundants) done
Following TS mode number                ...     0
Evaluating the initial hessian          ...  (Almloef) done
Evaluating the coordinates              ...  done
Calculating the B-matrix                .... done
Calculating the G-matrix                .... done
Diagonalizing the G-matrix              .... done
The first mode is                       ....   26
The number of degrees of freedom        ....   36

    -----------------------------------------------------------------
                    Redundant Internal Coordinates


    -----------------------------------------------------------------
         Definition                    Initial Value    Approx d2E/dq
    -----------------------------------------------------------------
      1. B(C   1,C   0)                  1.4627         0.478377   
      2. B(Cl  2,C   0)                  1.9318         0.191599   
      3. B(H   4,C   1)                  1.3295         0.149396   
      4. B(H   4,Cl  3)                  1.2319         0.479746   
      5. B(H   5,C   0)                  1.1134         0.330467   
      6. B(H   6,C   1)                  1.1238         0.318033   
      7. B(C   7,C   0)                  1.5505         0.346524   
      8. B(H   8,C   7)                  1.1107         0.333751   
      9. B(H   9,C   7)                  1.1012         0.345571   
     10. B(H  10,C   7)                  1.1115         0.332761   
     11. B(N  11,C   1)                  1.4651         0.424682   
     12. B(H  12,N  11)                  1.0451         0.380399   
     13. B(H  13,N  11)                  1.0453         0.380069   
     14. A(H   5,C   0,C   7)          108.7551         0.315896   
     15. A(Cl  2,C   0,H   5)          106.3394         0.298864   
     16. A(C   1,C   0,H   5)          109.8609         0.333075   
     17. A(C   1,C   0,Cl  2)          117.6897         0.352838   
     18. A(C   1,C   0,C   7)          113.3389         0.374250   
     19. A(Cl  2,C   0,C   7)          100.1372         0.334268   
     20. A(H   4,C   1,H   6)          118.2091         0.249811   
     21. A(C   0,C   1,H   6)          107.8780         0.330965   
     22. A(C   0,C   1,H   4)           95.8381         0.292931   
     23. A(H   4,C   1,N  11)          116.6272         0.285876   
     24. A(C   0,C   1,N  11)          109.9891         0.385231   
     25. A(H   6,C   1,N  11)          107.3051         0.322594   
     26. A(C   1,H   4,Cl  3)          166.5960         0.279660   
     27. A(H   8,C   7,H  10)          108.1529         0.283884   
     28. A(C   0,C   7,H  10)          109.3767         0.316251   
     29. A(H   8,C   7,H   9)          107.6992         0.285557   
     30. A(C   0,C   7,H   9)          116.2486         0.318203   
     31. A(C   0,C   7,H   8)          110.2393         0.316404   
     32. A(H   9,C   7,H  10)          104.7455         0.285425   
     33. A(H  12,N  11,H  13)          107.3612         0.291079   
     34. A(C   1,N  11,H  13)          108.9673         0.329374   
     35. A(C   1,N  11,H  12)          108.1847         0.329421   
     36. D(H   4,C   1,C   0,C   7)    -63.7102         0.018090   
     37. D(H   6,C   1,C   0,Cl  2)    -57.8427         0.018090   
     38. D(N  11,C   1,C   0,H   5)    -62.9317         0.018090   
     39. D(H   6,C   1,C   0,C   7)     58.4470         0.018090   
     40. D(N  11,C   1,C   0,Cl  2)     58.8960         0.018090   
     41. D(H   6,C   1,C   0,H   5)   -179.6705         0.018090   
     42. D(H   4,C   1,C   0,H   5)     58.1722         0.018090   
     43. D(H   4,C   1,C   0,Cl  2)    180.0000         0.018090   
     44. D(N  11,C   1,C   0,C   7)    175.1858         0.018090   
     45. D(Cl  3,H   4,C   1,N  11)    115.8269         0.016424   
     46. D(Cl  3,H   4,C   1,H   6)   -113.8930         0.016424   
     47. D(Cl  3,H   4,C   1,C   0)      0.0000         0.016424   
     48. D(H   8,C   7,C   0,H   5)    177.9815         0.009690   
     49. D(H   8,C   7,C   0,Cl  2)     66.7262         0.009690   
     50. D(H  10,C   7,C   0,H   5)     59.1872         0.009690   
     51. D(H  10,C   7,C   0,Cl  2)    -52.0681         0.009690   
     52. D(H  10,C   7,C   0,C   1)   -178.3149         0.009690   
     53. D(H   9,C   7,C   0,H   5)    -59.1238         0.009690   
     54. D(H   9,C   7,C   0,Cl  2)   -170.3791         0.009690   
     55. D(H   9,C   7,C   0,C   1)     63.3742         0.009690   
     56. D(H   8,C   7,C   0,C   1)    -59.5205         0.009690   
     57. D(H  13,N  11,C   1,H   4)    -41.4377         0.015377   
     58. D(H  13,N  11,C   1,C   0)     66.2272         0.015377   
     59. D(H  12,N  11,C   1,H   6)    -60.2522         0.015377   
     60. D(H  12,N  11,C   1,H   4)     74.9864         0.015377   
     61. D(H  13,N  11,C   1,H   6)   -176.6762         0.015377   
     62. D(H  12,N  11,C   1,C   0)   -177.3487         0.015377   
    -----------------------------------------------------------------

Number of atoms                         .... 14
Number of degrees of freedom            .... 62

         *************************************************************
         *                GEOMETRY OPTIMIZATION CYCLE   1            *
         *************************************************************
---------------------------------
CARTESIAN COORDINATES (ANGSTROEM)
---------------------------------
  C     -0.163870    0.000000   -0.284500
  C     -0.152100    0.000000    1.178140
  Cl     1.539380    0.000000   -1.195890
  Cl    -2.696010    0.000000    1.171640
  H     -1.473560    0.000000    1.324010
  H     -0.719130    0.889700   -0.658300
  H      0.419920   -0.905470    1.518550
  C     -0.799320   -1.276350   -0.893650
  H     -0.240460   -2.178180   -0.565020
  H     -1.864890   -1.443440   -0.671600
  H     -0.746660   -1.221310   -2.002530
  N      0.563170    1.178890    1.673230
  H      0.594080    1.127300    2.716570
  H      0.021810    2.036260    1.419230

----------------------------
CARTESIAN COORDINATES (A.U.)
----------------------------
  NO LB      ZA    FRAG     MASS         X           Y           Z
   0 C     6.0000    0    12.011   -0.309669    0.000000   -0.537627
   1 C     6.0000    0    12.011   -0.287427    0.000000    2.226362
   2 Cl   17.0000    0    35.453    2.909007    0.000000   -2.259905
   3 Cl   17.0000    0    35.453   -5.094721    0.000000    2.214079
   4 H     1.0000    0     1.008   -2.784625    0.000000    2.502016
   5 H     1.0000    0     1.008   -1.358959    1.681289   -1.244007
   6 H     1.0000    0     1.008    0.793534   -1.711090    2.869644
   7 C     6.0000    0    12.011   -1.510496   -2.411952   -1.688754
   8 H     1.0000    0     1.008   -0.454404   -4.116164   -1.067733
   9 H     1.0000    0     1.008   -3.524131   -2.727706   -1.269140
  10 H     1.0000    0     1.008   -1.410983   -2.307941   -3.784233
  11 N     7.0000    0    14.007    1.064237    2.227779    3.161946
  12 H     1.0000    0     1.008    1.122649    2.130288    5.133573
  13 H     1.0000    0     1.008    0.041215    3.847974    2.681956

--------------------------------
INTERNAL COORDINATES (ANGSTROEM)
--------------------------------
 C      0   0   0     0.000000000000     0.00000000     0.00000000
 C      1   0   0     1.462687356375     0.00000000     0.00000000
 Cl     1   2   0     1.931758860365   117.68968225     0.00000000
 Cl     2   1   3     2.543918304132    89.39254811   180.00000000
 H      4   2   1     1.231909338953     6.95848578   180.00000000
 H      1   2   3     1.113376036027   109.86090335   238.17224982
 H      2   1   3     1.123815718612   107.87802044   302.15726990
 C      1   2   3     1.550461140274   113.33886124   116.28976159
 H      8   1   2     1.110684259995   110.23934026   300.47950435
 H      8   1   2     1.101210559112   116.24862714    63.37415134
 H      8   1   2     1.111493289049   109.37669724   181.68511444
 N      2   1   3     1.465096212916   109.98906393    58.89604398
 H     12   2   1     1.045071917047   108.18470167   182.65128986
 H     12   2   1     1.045308550860   108.96728684    66.22720504

---------------------------
INTERNAL COORDINATES (A.U.)
---------------------------
 C      0   0   0     0.000000000000     0.00000000     0.00000000
 C      1   0   0     2.764078523098     0.00000000     0.00000000
 Cl     1   2   0     3.650495202866   117.68968225     0.00000000
 Cl     2   1   3     4.807308901880    89.39254811   180.00000000
 H      4   2   1     2.327971272441     6.95848578   180.00000000
 H      1   2   3     2.103975792163   109.86090335   238.17224982
 H      2   1   3     2.123703933173   107.87802044   302.15726990
 C      1   2   3     2.929946936405   113.33886124   116.28976159
 H      8   1   2     2.098889072647   110.23934026   300.47950435
 H      8   1   2     2.080986372504   116.24862714    63.37415134
 H      8   1   2     2.100417915993   109.37669724   181.68511444
 N      2   1   3     2.768630602256   109.98906393    58.89604398
 H     12   2   1     1.974899713471   108.18470167   182.65128986
 H     12   2   1     1.975346886571   108.96728684    66.22720504

---------------------
BASIS SET INFORMATION
---------------------
There are 4 groups of distinct atoms

 Group   1 Type C   : 11s5p1d contracted to 4s3p1d pattern {6311/311/1}
 Group   2 Type Cl  : 13s10p1d contracted to 6s5p1d pattern {631111/52111/1}
 Group   3 Type H   : 5s contracted to 3s pattern {311}
 Group   4 Type N   : 11s5p1d contracted to 4s3p1d pattern {6311/311/1}

Atom   0C    basis set group =>   1
Atom   1C    basis set group =>   1
Atom   2Cl   basis set group =>   2
Atom   3Cl   basis set group =>   2
Atom   4H    basis set group =>   3
Atom   5H    basis set group =>   3
Atom   6H    basis set group =>   3
Atom   7C    basis set group =>   1
Atom   8H    basis set group =>   3
Atom   9H    basis set group =>   3
Atom  10H    basis set group =>   3
Atom  11N    basis set group =>   4
Atom  12H    basis set group =>   3
Atom  13H    basis set group =>   3
------------------------------------------------------------------------------
                           ORCA GTO INTEGRAL CALCULATION
------------------------------------------------------------------------------

                         BASIS SET STATISTICS AND STARTUP INFO

 # of primitive gaussian shells          ...  156
 # of primitive gaussian functions       ...  260
 # of contracted shells                  ...   80
 # of contracted basis functions         ...  148
 Highest angular momentum                ...    2
 Maximum contraction depth               ...    6
 Integral package used                   ... LIBINT
 Integral threshhold            Thresh   ...  3.000e-16
 Primitive cut-off              TCut     ...  3.000e-18


------------------------------ INTEGRAL EVALUATION ----------------------------


 * One electron integrals 
 Pre-screening matrix                    ... done
 Shell pair data                         ... done (   0.002 sec)

-------------------------------------------------------------------------------
                                 ORCA SCF
-------------------------------------------------------------------------------

------------
SCF SETTINGS
------------
Hamiltonian:
 Ab initio Hamiltonian  Method          .... Hartree-Fock(GTOs)


General Settings:
 Integral files         IntName         .... run
 Hartree-Fock type      HFTyp           .... RHF
 Total Charge           Charge          ....   -1
 Multiplicity           Mult            ....    1
 Number of Electrons    NEL             ....   68
 Basis Dimension        Dim             ....  148
 Nuclear Repulsion      ENuc            ....    363.5755638853 Eh

Convergence Acceleration:
 DIIS                   CNVDIIS         .... on
   Start iteration      DIISMaxIt       ....    12
   Startup error        DIISStart       ....  0.200000
   # of expansion vecs  DIISMaxEq       ....     5
   Bias factor          DIISBfac        ....   1.050
   Max. coefficient     DIISMaxC        ....  10.000
 Newton-Raphson         CNVNR           .... off
 SOSCF                  CNVSOSCF        .... on
   Start iteration      SOSCFMaxIt      ....   150
   Startup grad/error   SOSCFStart      ....  0.003300
 Level Shifting         CNVShift        .... on
   Level shift para.    LevelShift      ....    0.2500
   Turn off err/grad.   ShiftErr        ....    0.0010
 Zerner damping         CNVZerner       .... off
 Static damping         CNVDamp         .... on
   Fraction old density DampFac         ....    0.7000
   Max. Damping (<1)    DampMax         ....    0.9800
   Min. Damping (>=0)   DampMin         ....    0.0000
   Turn off err/grad.   DampErr         ....    0.1000
 Fernandez-Rico         CNVRico         .... off

SCF Procedure:
 Maximum # iterations   MaxIter         ....   125
 SCF integral mode      SCFMode         .... Direct
   Integral package                     .... LIBINT
 Reset frequeny         DirectResetFreq ....    20
 Integral Threshold     Thresh          ....  3.000e-16 Eh
 Primitive CutOff       TCut            ....  3.000e-18 Eh

Convergence Tolerance:
 Convergence Check Mode ConvCheckMode   .... All-Criteria
 Convergence forced     ConvForced      .... 1
 Energy Change          TolE            ....  1.000e-14 Eh
 Max Density Change     TolMaxP         ....  1.000e-14
 RMS Density Change     TolRMSP         ....  1.000e-14
 Orbital Gradient       TolG            ....  1.000e-09
 Orbital Rotation angle TolX            ....  1.000e-09
 DIIS Error             TolErr          ....  1.000e-14


Diagonalization of the overlap matrix:
Smallest eigenvalue                        ... 2.233e-03
Time for diagonalization                   ...    0.004 sec
Threshold for overlap eigenvalues          ... 1.000e-08
Number of eigenvalues below threshold      ... 0
Time for construction of square roots      ...    0.001 sec
Total time needed                          ...    0.005 sec

-------------------
DFT GRID GENERATION
-------------------

General Integration Accuracy     IntAcc      ...  4.340
Radial Grid Type                 RadialGrid  ... Gauss-Chebyshev
Angular Grid (max. acc.)         AngularGrid ... Lebedev-110
Angular grid pruning method      GridPruning ... 3 (G Style)
Weight generation scheme         WeightScheme... Becke
Basis function cutoff            BFCut       ...    3.0000e-16
Integration weight cutoff        WCut        ...    1.0000e-14
Grids for H and He will be reduced by one unit

# of grid points (after initial pruning)     ...  16710 (   0.0 sec)
# of grid points (after weights+screening)   ...  15605 (   0.0 sec)
nearest neighbour list constructed           ...    0.0 sec
Grid point re-assignment to atoms done       ...    0.0 sec
Grid point division into batches done        ...    0.0 sec
Reduced shell lists constructed in    0.3 sec

Total number of grid points                  ...    15605
Total number of batches                      ...      250
Average number of points per batch           ...       62
Average number of grid points per atom       ...     1115
Average number of shells per batch           ...    58.51 (73.13%)
Average number of basis functions per batch  ...   111.20 (75.13%)
Average number of large shells per batch     ...    48.01 (82.06%)
Average number of large basis fcns per batch ...    90.96 (81.80%)
Maximum spatial batch extension              ...  18.97, 25.60, 20.24 au
Average spatial batch extension              ...   3.86,  4.07,  3.90 au

Time for grid setup =    0.366 sec

------------------------------
INITIAL GUESS: MODEL POTENTIAL
------------------------------
Loading Hartree-Fock densities                     ... done
Calculating cut-offs                               ... done
Setting up the integral package                    ... done
Initializing the effective Hamiltonian             ... done
Starting the Coulomb interaction                   ... done (   0.2 sec)
Reading the grid                                   ... done
Mapping shells                                     ... done
Starting the XC term evaluation                    ... done (   0.3 sec)
Transforming the Hamiltonian                       ... done (   0.0 sec)
Diagonalizing the Hamiltonian                      ... done (   0.0 sec)
Back transforming the eigenvectors                 ... done (   0.0 sec)
Now organizing SCF variables                       ... done
                      ------------------
                      INITIAL GUESS DONE (   1.0 sec)
                      ------------------
--------------
SCF ITERATIONS
--------------
ITER       Energy         Delta-E        Max-DP      RMS-DP      [F,P]     Damp
               ***  Starting incremental Fock matrix formation  ***
  0  -1091.2791673024   0.000000000000 0.07368089  0.00226285  0.6488000 0.7000
  1  -1091.4150393219  -0.135872019497 0.04995386  0.00178389  0.4559931 0.7000
  2  -1091.4950618864  -0.080022564480 0.02897938  0.00110163  0.3204654 0.7000
  3  -1091.5450728959  -0.050011009523 0.01724737  0.00064973  0.2256140 0.7000
                               ***Turning on DIIS***
  4  -1091.5787667362  -0.033693840242 0.01093989  0.00040296  0.1589198 0.7000
  5  -1091.9829545139  -0.404187777712 0.00698259  0.00028605  0.1118786 0.7000
  6  -1091.9180563184   0.064898195522 0.01837021  0.00077493  0.0784166 0.0000
  7  -1091.6705575724   0.247498745940 0.00622891  0.00013506  0.0033748 0.0000
                      *** Initiating the SOSCF procedure ***
                           *** Shutting down DIIS ***
                      *** Re-Reading the Fockian *** 
                      *** Removing any level shift *** 
ITER      Energy       Delta-E        Grad      Rot      Max-DP    RMS-DP
  8  -1091.66439558   0.0061619942  0.000984  0.000984  0.004511  0.000099
               *** Restarting incremental Fock matrix formation ***
  9  -1091.65823142   0.0061641607  0.000498  0.001208  0.004250  0.000074
 10  -1091.65824287  -0.0000114490  0.000242  0.001316  0.004157  0.000076
 11  -1091.65824647  -0.0000036043  0.000066  0.000108  0.000385  0.000011
 12  -1091.65824672  -0.0000002444  0.000012  0.000019  0.000094  0.000002
 13  -1091.65824673  -0.0000000117  0.000005  0.000024  0.000034  0.000001
 14  -1091.65824673  -0.0000000023  0.000002  0.000007  0.000013  0.000000
 15  -1091.65824673  -0.0000000002  0.000000  0.000001  0.000003  0.000000
 16  -1091.65824673  -0.0000000000  0.000000  0.000000  0.000001  0.000000
 17  -1091.65824673  -0.0000000000  0.000000  0.000000  0.000000  0.000000
 18  -1091.65824673  -0.0000000000  0.000000  0.000000  0.000000  0.000000
 19  -1091.65824673   0.0000000000  0.000000  0.000000  0.000000  0.000000
                          ***Energy convergence achieved***
 20  -1091.65824673   0.0000000000  0.000000  0.000000  0.000000  0.000000
 21  -1091.65824673  -0.0000000000  0.000000  0.000000  0.000000  0.000000
 22  -1091.65824673   0.0000000000  0.000000  0.000000  0.000000  0.000000
                          ***Energy convergence achieved***
                           ***RMSP convergence achieved***
                           ***MAXP convergence achieved***
                       ***Gradient convergence achieved***
                    ***Orbital Rotation convergence achieved***
              ***Rediagonalizing the Fockian in SOSCF/NRSCF***

               *****************************************************
               *                     SUCCESS                       *
               *           SCF CONVERGED AFTER  23 CYCLES          *
               *****************************************************


----------------
TOTAL SCF ENERGY
----------------

Total Energy       :        -1091.65824673 Eh          -29705.53109 eV

Components:
Nuclear Repulsion  :          363.57556389 Eh            9893.39406 eV
Electronic Energy  :        -1455.23381061 Eh          -39598.92516 eV
One Electron Energy:        -2240.34362892 Eh          -60962.84943 eV
Two Electron Energy:          785.10981830 Eh           21363.92428 eV

Virial components:
Potential Energy   :        -2183.95068210 Eh          -59428.31934 eV
Kinetic Energy     :         1092.29243538 Eh           29722.78824 eV
Virial Ratio       :            1.99941940


---------------
SCF CONVERGENCE
---------------

  Last Energy change         ...    0.0000e+00  Tolerance :   1.0000e-14
  Last MAX-Density change    ...    0.0000e+00  Tolerance :   1.0000e-14
  Last RMS-Density change    ...    0.0000e+00  Tolerance :   1.0000e-14
  Last Orbital Gradient      ...    9.9913e-10  Tolerance :   1.0000e-09
  Last Orbital Rotation      ...    0.0000e+00  Tolerance :   1.0000e-09

             **** THE GBW FILE WAS UPDATED (run.gbw) ****
             **** DENSITY FILE WAS UPDATED (run.scfp.tmp) ****
             **** ENERGY FILE WAS UPDATED (run.en.tmp) ****
----------------
ORBITAL ENERGIES
----------------

  NO   OCC          E(Eh)            E(eV) 
   0   2.0000    -104.639357     -2847.3817 
   1   2.0000    -104.581068     -2845.7955 
   2   2.0000     -15.378039      -418.4577 
   3   2.0000     -11.138400      -303.0913 
   4   2.0000     -11.080620      -301.5190 
   5   2.0000     -11.023128      -299.9546 
   6   2.0000     -10.365914      -282.0709 
   7   2.0000     -10.316826      -280.7351 
   8   2.0000      -7.833729      -213.1666 
   9   2.0000      -7.831656      -213.1102 
  10   2.0000      -7.831566      -213.1077 
  11   2.0000      -7.785266      -211.8479 
  12   2.0000      -7.781844      -211.7547 
  13   2.0000      -7.781806      -211.7537 
  14   2.0000      -1.012007       -27.5381 
  15   2.0000      -0.939227       -25.5577 
  16   2.0000      -0.910348       -24.7718 
  17   2.0000      -0.833275       -22.6746 
  18   2.0000      -0.739467       -20.1219 
  19   2.0000      -0.607018       -16.5178 
  20   2.0000      -0.494793       -13.4640 
  21   2.0000      -0.475392       -12.9361 
  22   2.0000      -0.460386       -12.5277 
  23   2.0000      -0.427403       -11.6302 
  24   2.0000      -0.381692       -10.3864 
  25   2.0000      -0.343886        -9.3576 
  26   2.0000      -0.334828        -9.1111 
  27   2.0000      -0.328406        -8.9364 
  28   2.0000      -0.284054        -7.7295 
  29   2.0000      -0.268035        -7.2936 
  30   2.0000      -0.263477        -7.1696 
  31   2.0000      -0.252043        -6.8584 
  32   2.0000      -0.243766        -6.6332 
  33   2.0000      -0.093274        -2.5381 
  34   0.0000       0.303179         8.2499 
  35   0.0000       0.306664         8.3447 
  36   0.0000       0.318655         8.6711 
  37   0.0000       0.323641         8.8067 
  38   0.0000       0.364791         9.9265 
  39   0.0000       0.376774        10.2525 
  40   0.0000       0.391200        10.6451 
  41   0.0000       0.404066        10.9952 
  42   0.0000       0.455736        12.4012 
  43   0.0000       0.503360        13.6971 
  44   0.0000       0.515991        14.0408 
  45   0.0000       0.539264        14.6741 
  46   0.0000       0.561757        15.2862 
  47   0.0000       0.588065        16.0021 
  48   0.0000       0.607331        16.5263 
  49   0.0000       0.611389        16.6367 
  50   0.0000       0.629015        17.1164 
  51   0.0000       0.633083        17.2271 
  52   0.0000       0.657027        17.8786 
  53   0.0000       0.685512        18.6537 
  54   0.0000       0.699575        19.0364 
  55   0.0000       0.717597        19.5268 
  56   0.0000       0.737203        20.0603 
  57   0.0000       0.764940        20.8151 
  58   0.0000       0.805907        21.9299 
  59   0.0000       0.862386        23.4667 
  60   0.0000       0.871865        23.7247 
  61   0.0000       0.890706        24.2373 
  62   0.0000       0.934180        25.4203 
  63   0.0000       0.943463        25.6729 
  64   0.0000       0.947027        25.7699 
  65   0.0000       0.958010        26.0688 
  66   0.0000       0.985831        26.8258 
  67   0.0000       0.988911        26.9096 
  68   0.0000       1.054930        28.7061 
  69   0.0000       1.079724        29.3808 
  70   0.0000       1.121264        30.5112 
  71   0.0000       1.155993        31.4562 
  72   0.0000       1.194708        32.5096 
  73   0.0000       1.234086        33.5812 
  74   0.0000       1.267453        34.4891 
  75   0.0000       1.302575        35.4449 
  76   0.0000       1.358481        36.9662 
  77   0.0000       1.365136        37.1472 
  78   0.0000       1.376824        37.4653 
  79   0.0000       1.390463        37.8364 
  80   0.0000       1.409211        38.3466 
  81   0.0000       1.416970        38.5577 
  82   0.0000       1.423319        38.7305 
  83   0.0000       1.465381        39.8751 
  84   0.0000       1.496664        40.7263 
  85   0.0000       1.573769        42.8244 
  86   0.0000       1.589421        43.2503 
  87   0.0000       1.651854        44.9492 
  88   0.0000       1.677865        45.6570 
  89   0.0000       1.699672        46.2504 
  90   0.0000       1.831831        49.8466 
  91   0.0000       1.910997        52.0009 
  92   0.0000       1.940620        52.8069 
  93   0.0000       1.971858        53.6570 
  94   0.0000       2.037819        55.4519 
  95   0.0000       2.060748        56.0758 
  96   0.0000       2.160210        58.7823 
  97   0.0000       2.170455        59.0611 
  98   0.0000       2.195853        59.7522 
  99   0.0000       2.318975        63.1025 
 100   0.0000       2.343340        63.7655 
 101   0.0000       2.381646        64.8079 
 102   0.0000       2.438082        66.3436 
 103   0.0000       2.499565        68.0166 
 104   0.0000       2.593116        70.5623 
 105   0.0000       2.643219        71.9256 
 106   0.0000       2.683909        73.0329 
 107   0.0000       2.710245        73.7495 
 108   0.0000       2.719637        74.0051 
 109   0.0000       2.729099        74.2626 
 110   0.0000       2.785380        75.7940 
 111   0.0000       2.823317        76.8264 
 112   0.0000       2.889505        78.6274 
 113   0.0000       2.899766        78.9067 
 114   0.0000       2.925049        79.5946 
 115   0.0000       2.965419        80.6931 
 116   0.0000       2.997577        81.5682 
 117   0.0000       3.050569        83.0102 
 118   0.0000       3.063096        83.3511 
 119   0.0000       3.089563        84.0713 
 120   0.0000       3.260635        88.7264 
 121   0.0000       3.360268        91.4375 
 122   0.0000       3.451015        93.9069 
 123   0.0000       3.602416        98.0267 
 124   0.0000       3.627490        98.7090 
 125   0.0000       3.674400        99.9855 
 126   0.0000       3.726792       101.4112 
 127   0.0000       3.777348       102.7869 
 128   0.0000       3.867947       105.2522 
 129   0.0000       4.181654       113.7886 
 130   0.0000       4.476084       121.8005 
 131   0.0000       4.543350       123.6308 
 132   0.0000       4.722926       128.5174 
 133   0.0000       5.173298       140.7726 
 134   0.0000      10.428954       283.7863 
 135   0.0000      10.632574       289.3271 
 136   0.0000      24.708690       672.3576 
 137   0.0000      24.899304       677.5445 
 138   0.0000      25.146545       684.2723 
 139   0.0000      26.489144       720.8063 
 140   0.0000      26.561588       722.7776 
 141   0.0000      26.600575       723.8384 
 142   0.0000      26.632310       724.7020 
 143   0.0000      27.072531       736.6810 
 144   0.0000      27.101139       737.4595 
 145   0.0000      36.986194      1006.4455 
 146   0.0000     219.255259      5966.2389 
 147   0.0000     219.503545      5972.9951 

                    ********************************
                    * MULLIKEN POPULATION ANALYSIS *
                    ********************************

-----------------------
MULLIKEN ATOMIC CHARGES
-----------------------
   0 C :   -0.226048
   1 C :   -0.304702
   2 Cl:   -0.342710
   3 Cl:   -0.647129
   4 H :    0.377425
   5 H :    0.214503
   6 H :    0.126988
   7 C :   -0.574610
   8 H :    0.186064
   9 H :    0.249131
  10 H :    0.186974
  11 N :   -0.813807
  12 H :    0.283973
  13 H :    0.283950
Sum of atomic charges:   -1.0000000

--------------------------------
MULLIKEN REDUCED ORBITAL CHARGES
--------------------------------
  0 C s       :     3.363779  s :     3.363779
      pz      :     0.984454  p :     2.764758
      px      :     0.748859
      py      :     1.031445
      dz2     :     0.020663  d :     0.097510
      dxz     :     0.025957
      dyz     :     0.016116
      dx2y2   :     0.015282
      dxy     :     0.019492
  1 C s       :     3.273539  s :     3.273539
      pz      :     0.844536  p :     2.945868
      px      :     1.267419
      py      :     0.833913
      dz2     :     0.027638  d :     0.085296
      dxz     :     0.006416
      dyz     :     0.014177
      dx2y2   :     0.012143
      dxy     :     0.024921
  2 Cls       :     5.963424  s :     5.963424
      pz      :     3.843984  p :    11.363296
      px      :     3.540794
      py      :     3.978517
      dz2     :     0.001445  d :     0.015990
      dxz     :     0.006906
      dyz     :     0.000359
      dx2y2   :     0.005550
      dxy     :     0.001729
  3 Cls       :     5.964972  s :     5.964972
      pz      :     3.976666  p :    11.661877
      px      :     3.694270
      py      :     3.990940
      dz2     :     0.004388  d :     0.020280
      dxz     :     0.001475
      dyz     :     0.000173
      dx2y2   :     0.013576
      dxy     :     0.000668
  4 H s       :     0.622575  s :     0.622575
  5 H s       :     0.785497  s :     0.785497
  6 H s       :     0.873012  s :     0.873012
  7 C s       :     3.346742  s :     3.346742
      pz      :     1.068179  p :     3.158004
      px      :     1.112546
      py      :     0.977279
      dz2     :     0.025136  d :     0.069864
      dxz     :     0.004462
      dyz     :     0.007772
      dx2y2   :     0.017544
      dxy     :     0.014950
  8 H s       :     0.813936  s :     0.813936
  9 H s       :     0.750869  s :     0.750869
 10 H s       :     0.813026  s :     0.813026
 11 N s       :     3.709866  s :     3.709866
      pz      :     1.221648  p :     4.067867
      px      :     1.705709
      py      :     1.140510
      dz2     :     0.015816  d :     0.036074
      dxz     :     0.001684
      dyz     :     0.002324
      dx2y2   :     0.002762
      dxy     :     0.013487
 12 H s       :     0.716027  s :     0.716027
 13 H s       :     0.716050  s :     0.716050


                     *******************************
                     * LOEWDIN POPULATION ANALYSIS *
                     *******************************

----------------------
LOEWDIN ATOMIC CHARGES
----------------------
   0 C :   -0.125728
   1 C :   -0.410328
   2 Cl:   -0.199360
   3 Cl:   -0.451057
   4 H :    0.108023
   5 H :    0.093965
   6 H :    0.053259
   7 C :   -0.285243
   8 H :    0.087751
   9 H :    0.104193
  10 H :    0.080898
  11 N :   -0.387090
  12 H :    0.164730
  13 H :    0.165986

-------------------------------
LOEWDIN REDUCED ORBITAL CHARGES
-------------------------------
  0 C s       :     2.898668  s :     2.898668
      pz      :     1.100092  p :     3.037479
      px      :     0.855609
      py      :     1.081777
      dz2     :     0.041771  d :     0.189581
      dxz     :     0.055293
      dyz     :     0.030998
      dx2y2   :     0.030042
      dxy     :     0.031477
  1 C s       :     2.931565  s :     2.931565
      pz      :     1.046254  p :     3.298931
      px      :     1.300196
      py      :     0.952481
      dz2     :     0.059404  d :     0.179832
      dxz     :     0.013457
      dyz     :     0.034341
      dx2y2   :     0.026809
      dxy     :     0.045819
  2 Cls       :     5.793861  s :     5.793861
      pz      :     3.847677  p :    11.387834
      px      :     3.575159
      py      :     3.964998
      dz2     :     0.001735  d :     0.017665
      dxz     :     0.007732
      dyz     :     0.000415
      dx2y2   :     0.005773
      dxy     :     0.002010
  3 Cls       :     5.764079  s :     5.764079
      pz      :     3.965347  p :    11.663243
      px      :     3.713158
      py      :     3.984738
      dz2     :     0.005260  d :     0.023735
      dxz     :     0.001504
      dyz     :     0.000207
      dx2y2   :     0.016111
      dxy     :     0.000654
  4 H s       :     0.891977  s :     0.891977
  5 H s       :     0.906035  s :     0.906035
  6 H s       :     0.946741  s :     0.946741
  7 C s       :     2.910025  s :     2.910025
      pz      :     1.078480  p :     3.267729
      px      :     1.121334
      py      :     1.067915
      dz2     :     0.035729  d :     0.107489
      dxz     :     0.006682
      dyz     :     0.014184
      dx2y2   :     0.026604
      dxy     :     0.024290
  8 H s       :     0.912249  s :     0.912249
  9 H s       :     0.895807  s :     0.895807
 10 H s       :     0.919102  s :     0.919102
 11 N s       :     3.241418  s :     3.241418
      pz      :     1.224801  p :     4.093480
      px      :     1.684104
      py      :     1.184574
      dz2     :     0.020605  d :     0.052193
      dxz     :     0.002104
      dyz     :     0.005024
      dx2y2   :     0.005596
      dxy     :     0.018864
 12 H s       :     0.835270  s :     0.835270
 13 H s       :     0.834014  s :     0.834014


                      *****************************
                      * MAYER POPULATION ANALYSIS *
                      *****************************

  NA   - Mulliken gross atomic population
  ZA   - Total nuclear charge
  QA   - Mulliken gross atomic charge
  VA   - Mayer's total valence
  BVA  - Mayer's bonded valence
  FA   - Mayer's free valence

  ATOM       NA         ZA         QA         VA         BVA        FA
  0 C      6.2260     6.0000    -0.2260     3.6571     3.6571    -0.0000
  1 C      6.3047     6.0000    -0.3047     3.1331     3.1331    -0.0000
  2 Cl    17.3427    17.0000    -0.3427     0.7625     0.7625    -0.0000
  3 Cl    17.6471    17.0000    -0.6471     0.3804     0.3804     0.0000
  4 H      0.6226     1.0000     0.3774     0.8352     0.8352    -0.0000
  5 H      0.7855     1.0000     0.2145     0.8984     0.8984    -0.0000
  6 H      0.8730     1.0000     0.1270     0.9394     0.9394    -0.0000
  7 C      6.5746     6.0000    -0.5746     3.6525     3.6525    -0.0000
  8 H      0.8139     1.0000     0.1861     0.9179     0.9179     0.0000
  9 H      0.7509     1.0000     0.2491     0.8870     0.8870    -0.0000
 10 H      0.8130     1.0000     0.1870     0.9102     0.9102     0.0000
 11 N      7.8138     7.0000    -0.8138     2.5756     2.5756    -0.0000
 12 H      0.7160     1.0000     0.2840     0.8789     0.8789     0.0000
 13 H      0.7161     1.0000     0.2839     0.8793     0.8793    -0.0000

  Mayer bond orders larger than 0.1
B(  0-C ,  1-C ) :   1.0312 B(  0-C ,  2-Cl) :   0.8194 B(  0-C ,  5-H ) :   0.9248 
B(  0-C ,  7-C ) :   0.9338 B(  1-C ,  4-H ) :   0.4505 B(  1-C ,  6-H ) :   0.9540 
B(  1-C , 11-N ) :   0.8340 B(  3-Cl,  4-H ) :   0.3904 B(  7-C ,  8-H ) :   0.9511 
B(  7-C ,  9-H ) :   0.9239 B(  7-C , 10-H ) :   0.9602 B( 11-N , 12-H ) :   0.8888 
B( 11-N , 13-H ) :   0.8786 

-------
TIMINGS
-------

Total SCF time: 0 days 0 hours 1 min 50 sec 

Total time                  ....     110.537 sec
Sum of individual times     ....     110.495 sec  (100.0%)

Fock matrix formation       ....     109.351 sec  ( 98.9%)
Diagonalization             ....       0.051 sec  (  0.0%)
Density matrix formation    ....       0.007 sec  (  0.0%)
Population analysis         ....       0.007 sec  (  0.0%)
Initial guess               ....       0.658 sec  (  0.6%)
Orbital Transformation      ....       0.000 sec  (  0.0%)
Orbital Orthonormalization  ....       0.000 sec  (  0.0%)
DIIS solution               ....       0.012 sec  (  0.0%)
SOSCF solution              ....       0.042 sec  (  0.0%)

------------------------------------------------------------------------------
                                ORCA  MP2 
------------------------------------------------------------------------------

MP2 will be done in the AO integral direct mode
The Q1-step will be done using symmetric double matrices
Dimension of the basis                    ...  148
Memory devoted for MP2                    ... 5000 MB   
Memory needed for all in one shot         ...  424 MB
Number of MOs that can be treated together...  400      
MP2 density construction                  ... relaxed
The MP2 gradient is requested => amplitudes will be stored on disk
Total number of MOs              ...   34
Number of MOs treated per batch  ...   34 
Number of batches necessary      ...    1 
OPERATORS   0/  0 PASS   0
-----------------------------------------------
 MP2 CORRELATION ENERGY   :     -1.076351060 Eh
-----------------------------------------------


---------------------
MP2 DENSITY FORMATION
---------------------

Completing the external part of the density      ... done
Storing the unrelaxed density                    ... done

Calculating G(D)                                 ... done
Completing the Lagrangian                        ... done
Solving the Z-vector equations                   ... 

------------------------------------------------------------------------------
                           ORCA CP-SCF CALCULATION
------------------------------------------------------------------------------

Input orbitals are from        ... run.gbw
Input Perturbation             ... run.pin.tmp
Wavefunction output            ... run.pout.tmp
Perturbation mode              ... Real perturbation
Solver                         ... POPLE
Max. number of iterations      ... 128
Convergence tolerance          ... 1.000e-11
Integral handling              ... Direct
Number of perturbations        ... 1
Number of operators            ... 1
Orbital ranges used for CP-SCF:
 Operator 0:  Orbitals   0... 33  to  34...147
Variables per vector in CP-SCF ... 3876
Number of vectors sought       ... 1
     CP-SCF ITERATION   0: 
     CP-SCF ITERATION   1:      0.002188654195
     CP-SCF ITERATION   2:      0.000233025237
     CP-SCF ITERATION   3:      0.000022638243
     CP-SCF ITERATION   4:      0.000002190854
     CP-SCF ITERATION   5:      0.000000290895
     CP-SCF ITERATION   6:      0.000000033967
     CP-SCF ITERATION   7:      0.000000002883
     CP-SCF ITERATION   8:      0.000000000197
     CP-SCF ITERATION   9:      0.000000000025
     CP-SCF ITERATION  10:      0.000000000003
                                                 ... done
Finalizing the relaxed density                   ... done
Transforming P to the AO basis                   ... done
Storing the relaxed density                      ... done

------------------------------------
ENERGY WEIGHTED DENSITY FINALIZATION
------------------------------------

Gathering the parts of the W-matrix              ...                                                      done
Forming the Z-density                            ... done
Transforming Z to the AO basis                   ... done
Calculating G(Z)                                 ... done
Finalizing the W-matrix                          ...                                                      done
Transforming W to the AO basis and storing       ... done

                *********************************************
                * UNRELAXED MP2 DENSITY POPULATION ANALYSIS *
                *********************************************

------------------------------------------------------------------------------
                           ORCA POPULATION ANALYSIS
------------------------------------------------------------------------------
Input electron density              ... run.pmp2ur
BaseName (.gbw .S,...)              ... run

                    ********************************
                    * MULLIKEN POPULATION ANALYSIS *
                    ********************************

-----------------------
MULLIKEN ATOMIC CHARGES
-----------------------
   0 C :   -0.243925
   1 C :   -0.310412
   2 Cl:   -0.330567
   3 Cl:   -0.641063
   4 H :    0.372905
   5 H :    0.216226
   6 H :    0.129906
   7 C :   -0.582652
   8 H :    0.188518
   9 H :    0.250556
  10 H :    0.189327
  11 N :   -0.806019
  12 H :    0.283706
  13 H :    0.283495
Sum of atomic charges:   -1.0000000

--------------------------------
MULLIKEN REDUCED ORBITAL CHARGES
--------------------------------
  0 C s       :     3.358820  s :     3.358820
      pz      :     0.982032  p :     2.768663
      px      :     0.758153
      py      :     1.028478
      dz2     :     0.024171  d :     0.116442
      dxz     :     0.029832
      dyz     :     0.020528
      dx2y2   :     0.018963
      dxy     :     0.022947
  1 C s       :     3.268456  s :     3.268456
      pz      :     0.843609  p :     2.935044
      px      :     1.255310
      py      :     0.836125
      dz2     :     0.030966  d :     0.106912
      dxz     :     0.011834
      dyz     :     0.018284
      dx2y2   :     0.016701
      dxy     :     0.029126
  2 Cls       :     5.955785  s :     5.955785
      pz      :     3.825206  p :    11.307176
      px      :     3.523111
      py      :     3.958859
      dz2     :     0.011835  d :     0.067607
      dxz     :     0.017117
      dyz     :     0.010769
      dx2y2   :     0.015770
      dxy     :     0.012116
  3 Cls       :     5.958042  s :     5.958042
      pz      :     3.958380  p :    11.609398
      px      :     3.677998
      py      :     3.973020
      dz2     :     0.014977  d :     0.073622
      dxz     :     0.012292
      dyz     :     0.010524
      dx2y2   :     0.024403
      dxy     :     0.011426
  4 H s       :     0.627095  s :     0.627095
  5 H s       :     0.783774  s :     0.783774
  6 H s       :     0.870094  s :     0.870094
  7 C s       :     3.343331  s :     3.343331
      pz      :     1.065550  p :     3.149594
      px      :     1.109702
      py      :     0.974343
      dz2     :     0.028701  d :     0.089727
      dxz     :     0.008837
      dyz     :     0.011869
      dx2y2   :     0.021416
      dxy     :     0.018904
  8 H s       :     0.811482  s :     0.811482
  9 H s       :     0.749444  s :     0.749444
 10 H s       :     0.810673  s :     0.810673
 11 N s       :     3.704262  s :     3.704262
      pz      :     1.216957  p :     4.046158
      px      :     1.693803
      py      :     1.135398
      dz2     :     0.019430  d :     0.055599
      dxz     :     0.005837
      dyz     :     0.006177
      dx2y2   :     0.006895
      dxy     :     0.017259
 12 H s       :     0.716294  s :     0.716294
 13 H s       :     0.716505  s :     0.716505


                     *******************************
                     * LOEWDIN POPULATION ANALYSIS *
                     *******************************

----------------------
LOEWDIN ATOMIC CHARGES
----------------------
   0 C :   -0.144814
   1 C :   -0.415304
   2 Cl:   -0.189137
   3 Cl:   -0.445716
   4 H :    0.105731
   5 H :    0.097790
   6 H :    0.057796
   7 C :   -0.298198
   8 H :    0.091642
   9 H :    0.107536
  10 H :    0.084758
  11 N :   -0.385729
  12 H :    0.166259
  13 H :    0.167388

-------------------------------
LOEWDIN REDUCED ORBITAL CHARGES
-------------------------------
  0 C s       :     2.899157  s :     2.899157
      pz      :     1.094568  p :     3.034355
      px      :     0.862508
      py      :     1.077280
      dz2     :     0.046908  d :     0.211301
      dxz     :     0.058875
      dyz     :     0.035727
      dx2y2   :     0.034052
      dxy     :     0.035739
  1 C s       :     2.930427  s :     2.930427
      pz      :     1.040609  p :     3.279957
      px      :     1.287406
      py      :     0.951942
      dz2     :     0.064131  d :     0.204920
      dxz     :     0.019337
      dyz     :     0.038543
      dx2y2   :     0.032136
      dxy     :     0.050774
  2 Cls       :     5.787013  s :     5.787013
      pz      :     3.828681  p :    11.331165
      px      :     3.557081
      py      :     3.945403
      dz2     :     0.012355  d :     0.070960
      dxz     :     0.018491
      dyz     :     0.010979
      dx2y2   :     0.016418
      dxy     :     0.012716
  3 Cls       :     5.757566  s :     5.757566
      pz      :     3.946920  p :    11.609487
      px      :     3.695765
      py      :     3.966802
      dz2     :     0.016079  d :     0.078662
      dxz     :     0.012641
      dyz     :     0.010623
      dx2y2   :     0.027767
      dxy     :     0.011553
  4 H s       :     0.894269  s :     0.894269
  5 H s       :     0.902210  s :     0.902210
  6 H s       :     0.942204  s :     0.942204
  7 C s       :     2.910864  s :     2.910864
      pz      :     1.075638  p :     3.256854
      px      :     1.117976
      py      :     1.063239
      dz2     :     0.039970  d :     0.130481
      dxz     :     0.011534
      dyz     :     0.018871
      dx2y2   :     0.031137
      dxy     :     0.028969
  8 H s       :     0.908358  s :     0.908358
  9 H s       :     0.892464  s :     0.892464
 10 H s       :     0.915242  s :     0.915242
 11 N s       :     3.239729  s :     3.239729
      pz      :     1.220532  p :     4.072275
      px      :     1.672555
      py      :     1.179187
      dz2     :     0.024682  d :     0.073726
      dxz     :     0.006543
      dyz     :     0.009212
      dx2y2   :     0.010035
      dxy     :     0.023254
 12 H s       :     0.833741  s :     0.833741
 13 H s       :     0.832612  s :     0.832612


                      *****************************
                      * MAYER POPULATION ANALYSIS *
                      *****************************

  NA   - Mulliken gross atomic population
  ZA   - Total nuclear charge
  QA   - Mulliken gross atomic charge
  VA   - Mayer's total valence
  BVA  - Mayer's bonded valence
  FA   - Mayer's free valence

  ATOM       NA         ZA         QA         VA         BVA        FA
  0 C      6.2439     6.0000    -0.2439     3.7724     3.4293     0.3430
  1 C      6.3104     6.0000    -0.3104     3.2828     2.9463     0.3365
  2 Cl    17.3306    17.0000    -0.3306     1.1222     0.6921     0.4301
  3 Cl    17.6411    17.0000    -0.6411     0.7611     0.3567     0.4043
  4 H      0.6271     1.0000     0.3729     0.8360     0.7946     0.0414
  5 H      0.7838     1.0000     0.2162     0.9010     0.8571     0.0439
  6 H      0.8701     1.0000     0.1299     0.9428     0.8955     0.0473
  7 C      6.5827     6.0000    -0.5827     3.7719     3.4832     0.2887
  8 H      0.8115     1.0000     0.1885     0.9202     0.8793     0.0410
  9 H      0.7494     1.0000     0.2506     0.8890     0.8498     0.0393
 10 H      0.8107     1.0000     0.1893     0.9127     0.8711     0.0416
 11 N      7.8060     7.0000    -0.8060     2.7874     2.4389     0.3485
 12 H      0.7163     1.0000     0.2837     0.8813     0.8360     0.0453
 13 H      0.7165     1.0000     0.2835     0.8821     0.8368     0.0453

  Mayer bond orders larger than 0.1
B(  0-C ,  1-C ) :   0.9702 B(  0-C ,  2-Cl) :   0.7534 B(  0-C ,  5-H ) :   0.8848 
B(  0-C ,  7-C ) :   0.8773 B(  1-C ,  4-H ) :   0.4279 B(  1-C ,  6-H ) :   0.9114 
B(  1-C , 11-N ) :   0.7816 B(  3-Cl,  4-H ) :   0.3747 B(  7-C ,  8-H ) :   0.9128 
B(  7-C ,  9-H ) :   0.8871 B(  7-C , 10-H ) :   0.9213 B( 11-N , 12-H ) :   0.8474 
B( 11-N , 13-H ) :   0.8375 


                *******************************************
                * RELAXED MP2 DENSITY POPULATION ANALYSIS *
                *******************************************

------------------------------------------------------------------------------
                           ORCA POPULATION ANALYSIS
------------------------------------------------------------------------------
Input electron density              ... run.pmp2re
BaseName (.gbw .S,...)              ... run

                    ********************************
                    * MULLIKEN POPULATION ANALYSIS *
                    ********************************

-----------------------
MULLIKEN ATOMIC CHARGES
-----------------------
   0 C :   -0.290549
   1 C :   -0.336163
   2 Cl:   -0.290087
   3 Cl:   -0.593374
   4 H :    0.329482
   5 H :    0.210891
   6 H :    0.142383
   7 C :   -0.619496
   8 H :    0.195589
   9 H :    0.246405
  10 H :    0.195867
  11 N :   -0.754473
  12 H :    0.280594
  13 H :    0.282930
Sum of atomic charges:   -1.0000000

--------------------------------
MULLIKEN REDUCED ORBITAL CHARGES
--------------------------------
  0 C s       :     3.344618  s :     3.344618
      pz      :     0.979093  p :     2.839459
      px      :     0.834275
      py      :     1.026091
      dz2     :     0.021669  d :     0.106472
      dxz     :     0.027920
      dyz     :     0.019458
      dx2y2   :     0.016778
      dxy     :     0.020647
  1 C s       :     3.254940  s :     3.254940
      pz      :     0.885815  p :     2.983764
      px      :     1.227194
      py      :     0.870755
      dz2     :     0.026061  d :     0.097459
      dxz     :     0.012444
      dyz     :     0.017513
      dx2y2   :     0.015643
      dxy     :     0.025798
  2 Cls       :     5.956144  s :     5.956144
      pz      :     3.816499  p :    11.267430
      px      :     3.499208
      py      :     3.951723
      dz2     :     0.011941  d :     0.066513
      dxz     :     0.016449
      dyz     :     0.010831
      dx2y2   :     0.014902
      dxy     :     0.012390
  3 Cls       :     5.946539  s :     5.946539
      pz      :     3.947914  p :    11.571817
      px      :     3.657222
      py      :     3.966681
      dz2     :     0.015245  d :     0.075018
      dxz     :     0.012471
      dyz     :     0.010550
      dx2y2   :     0.025217
      dxy     :     0.011535
  4 H s       :     0.670518  s :     0.670518
  5 H s       :     0.789109  s :     0.789109
  6 H s       :     0.857617  s :     0.857617
  7 C s       :     3.333191  s :     3.333191
      pz      :     1.083327  p :     3.208153
      px      :     1.126944
      py      :     0.997882
      dz2     :     0.024557  d :     0.078151
      dxz     :     0.008017
      dyz     :     0.010447
      dx2y2   :     0.018726
      dxy     :     0.016405
  8 H s       :     0.804411  s :     0.804411
  9 H s       :     0.753595  s :     0.753595
 10 H s       :     0.804133  s :     0.804133
 11 N s       :     3.687213  s :     3.687213
      pz      :     1.210201  p :     4.015030
      px      :     1.674264
      py      :     1.130564
      dz2     :     0.017628  d :     0.052230
      dxz     :     0.005915
      dyz     :     0.005820
      dx2y2   :     0.006936
      dxy     :     0.015932
 12 H s       :     0.719406  s :     0.719406
 13 H s       :     0.717070  s :     0.717070


                     *******************************
                     * LOEWDIN POPULATION ANALYSIS *
                     *******************************

----------------------
LOEWDIN ATOMIC CHARGES
----------------------
   0 C :   -0.191215
   1 C :   -0.424198
   2 Cl:   -0.166900
   3 Cl:   -0.424067
   4 H :    0.095419
   5 H :    0.098739
   6 H :    0.073101
   7 C :   -0.333050
   8 H :    0.099775
   9 H :    0.112176
  10 H :    0.093833
  11 N :   -0.379292
  12 H :    0.171552
  13 H :    0.174127

-------------------------------
LOEWDIN REDUCED ORBITAL CHARGES
-------------------------------
  0 C s       :     2.903634  s :     2.903634
      pz      :     1.086068  p :     3.083315
      px      :     0.921003
      py      :     1.076244
      dz2     :     0.045968  d :     0.204266
      dxz     :     0.057199
      dyz     :     0.035163
      dx2y2   :     0.031749
      dxy     :     0.034187
  1 C s       :     2.932467  s :     2.932467
      pz      :     1.063342  p :     3.297004
      px      :     1.262953
      py      :     0.970709
      dz2     :     0.058160  d :     0.194727
      dxz     :     0.020167
      dyz     :     0.037489
      dx2y2   :     0.031130
      dxy     :     0.047780
  2 Cls       :     5.795610  s :     5.795610
      pz      :     3.822308  p :    11.300416
      px      :     3.536101
      py      :     3.942008
      dz2     :     0.012434  d :     0.070874
      dxz     :     0.018508
      dyz     :     0.011041
      dx2y2   :     0.015919
      dxy     :     0.012971
  3 Cls       :     5.759603  s :     5.759603
      pz      :     3.942038  p :    11.584242
      px      :     3.678319
      py      :     3.963884
      dz2     :     0.016360  d :     0.080222
      dxz     :     0.012818
      dyz     :     0.010653
      dx2y2   :     0.028719
      dxy     :     0.011673
  4 H s       :     0.904581  s :     0.904581
  5 H s       :     0.901261  s :     0.901261
  6 H s       :     0.926899  s :     0.926899
  7 C s       :     2.915890  s :     2.915890
      pz      :     1.090472  p :     3.297616
      px      :     1.130122
      py      :     1.077022
      dz2     :     0.035947  d :     0.119544
      dxz     :     0.010884
      dyz     :     0.017480
      dx2y2   :     0.028697
      dxy     :     0.026535
  8 H s       :     0.900225  s :     0.900225
  9 H s       :     0.887824  s :     0.887824
 10 H s       :     0.906167  s :     0.906167
 11 N s       :     3.243764  s :     3.243764
      pz      :     1.223902  p :     4.064515
      px      :     1.660470
      py      :     1.180143
      dz2     :     0.023141  d :     0.071014
      dxz     :     0.006703
      dyz     :     0.009024
      dx2y2   :     0.010027
      dxy     :     0.022119
 12 H s       :     0.828448  s :     0.828448
 13 H s       :     0.825873  s :     0.825873


                      *****************************
                      * MAYER POPULATION ANALYSIS *
                      *****************************

  NA   - Mulliken gross atomic population
  ZA   - Total nuclear charge
  QA   - Mulliken gross atomic charge
  VA   - Mayer's total valence
  BVA  - Mayer's bonded valence
  FA   - Mayer's free valence

  ATOM       NA         ZA         QA         VA         BVA        FA
  0 C      6.2905     6.0000    -0.2905     3.8708     3.5482     0.3225
  1 C      6.3362     6.0000    -0.3362     3.4519     3.1327     0.3192
  2 Cl    17.2901    17.0000    -0.2901     1.1644     0.7447     0.4197
  3 Cl    17.5934    17.0000    -0.5934     0.8213     0.4230     0.3984
  4 H      0.6705     1.0000     0.3295     0.8854     0.8450     0.0404
  5 H      0.7891     1.0000     0.2109     0.9056     0.8629     0.0428
  6 H      0.8576     1.0000     0.1424     0.9399     0.8941     0.0458
  7 C      6.6195     6.0000    -0.6195     3.7857     3.5005     0.2853
  8 H      0.8044     1.0000     0.1956     0.9188     0.8787     0.0401
  9 H      0.7536     1.0000     0.2464     0.8939     0.8556     0.0383
 10 H      0.8041     1.0000     0.1959     0.9112     0.8706     0.0407
 11 N      7.7545     7.0000    -0.7545     2.8575     2.5165     0.3410
 12 H      0.7194     1.0000     0.2806     0.8802     0.8354     0.0449
 13 H      0.7171     1.0000     0.2829     0.8814     0.8369     0.0446

  Mayer bond orders larger than 0.1
B(  0-C ,  1-C ) :   1.0578 B(  0-C ,  2-Cl) :   0.7363 B(  0-C ,  5-H ) :   0.8807 
B(  0-C ,  7-C ) :   0.8950 B(  1-C ,  4-H ) :   0.4410 B(  1-C ,  6-H ) :   0.8951 
B(  1-C , 11-N ) :   0.8363 B(  3-Cl,  4-H ) :   0.3978 B(  7-C ,  8-H ) :   0.9077 
B(  7-C ,  9-H ) :   0.8809 B(  7-C , 10-H ) :   0.9138 B( 11-N , 12-H ) :   0.8435 
B( 11-N , 13-H ) :   0.8324 


----------------------------------
MP2 DERIVATIVE INTEGRAL GENERATION
----------------------------------


Input Wavefunction Amplitudes       ... run.mp2tsaa.tmp.proc0
Input Correlated Electron Density   ... run.pmp2re
Input Energy Weighted Density       ... run.wmp2.tmp
Input SCF Electron Density          ... run.scfp.tmp

One-Electron Terms    ...
                        ... One-Electron Terms done
Prescreening matrices              ... done

Batch handling in the gradient evaluation:
Memory available                      ... 5000.0 MB
Memory per occupied orbital in Q2     ...    5.7 MB
Memory per occupied orbital in Q3     ...    0.0 MB
Total memory requirement per |i>      ...    5.7 MB
Max. Number of orbitals possible      ...    875
Number of orbitals treated per batch  ...     34
Number of batches to be done          ...      1
Batch   0: i=    0 ...    33

---------------------------------------
MP2 TOTAL ENERGY:    -1092.734597789 Eh
---------------------------------------

-----------------------------------
NORM OF THE MP2 GRADIENT:  0.275823
-----------------------------------

-------------------------   --------------------
FINAL SINGLE POINT ENERGY     -1092.734597789004
-------------------------   --------------------

------------------------------------------------------------------------------
                         ORCA GEOMETRY RELAXATION STEP
------------------------------------------------------------------------------

Reading the OPT-File                    .... done
Getting information on internals        .... done
Copying old internal coords+grads       .... done
Making the new internal coordinates     .... (new redundants).... done
Validating the new internal coordinates .... (new redundants).... done
Calculating the B-matrix                .... done
Calculating the G,G- and P matrices     .... done
Transforming gradient to internals      .... done
Projecting the internal gradient        .... done
Number of atoms                         ....  14
Number of internal coordinates          ....  62
Current Energy                          .... -1092.734597789 Eh
Current gradient norm                   ....     0.275822580 Eh/bohr
Maximum allowed component of the step   ....  0.300
Current trust radius                    ....  0.300
Evaluating the initial hessian          ....  (Almloef) done
Projecting the Hessian                  .... done
Diagonalizing the Hessian               .... done
Dimension of the hessian                ....  62
Lowest eigenvalues of the Hessian:
  0.009690369  0.015377142  0.016423997  0.018089864  0.077691970
Hessian has   0 negative eigenvalues
Taking P-RFO step
Searching for lambda that maximizes along the lowest mode
TS mode is mode number   0 with eigenvalue   0.00969037 and components:
   1.   -0.00000000
   2.    0.00000000
   3.   -0.00000000
   4.   -0.00000000
   5.    0.00000000
   6.    0.00000000
   7.   -0.00000000
   8.    0.00000000
   9.   -0.00000000
  10.   -0.00000000
  11.    0.00000000
  12.    0.00000000
  13.    0.00000000
  14.   -0.00000000
  15.    0.00000000
  16.   -0.00000000
  17.   -0.00000000
  18.   -0.00000000
  19.    0.00000000
  20.    0.00000000
  21.    0.00000000
  22.   -0.00000000
  23.   -0.00000000
  24.   -0.00000000
  25.    0.00000000
  26.    0.00000000
  27.    0.00000000
  28.    0.00000000
  29.   -0.00000000
  30.   -0.00000000
  31.   -0.00000000
  32.    0.00000000
  33.    0.00000000
  34.   -0.00000000
  35.    0.00000000
  36.    0.00000000
  37.    0.00000000
  38.    0.00000000
  39.    0.00000000
  40.    0.00000000
  41.    0.00000000
  42.    0.00000000
  43.    0.00000000
  44.    0.00000000
  45.    0.00000000
  46.    0.00000000
  47.    0.00000000
  48.   -0.33333333
  49.   -0.33333333
  50.   -0.33333333
  51.   -0.33333333
  52.   -0.33333333
  53.   -0.33333333
  54.   -0.33333333
  55.   -0.33333333
  56.   -0.33333333
  57.    0.00000000
  58.    0.00000000
  59.    0.00000000
  60.    0.00000000
  61.    0.00000000
  62.    0.00000000

Lambda that maximizes along the TS mode:       0.00970050
Searching for lambda that minimizes along all other modes
In cycle   1: lambdaN =  -0.08796205   step =   0.08796205
In cycle   2: lambdaN =  -0.11086548   step =   0.02290342
In cycle   3: lambdaN =  -0.11120133   step =   0.00033585
In cycle   4: lambdaN =  -0.11120139   step =   0.00000006
In cycle   5: lambdaN =  -0.11120139   step =   0.00000000
Lambda that minimizes along all other modes:  -0.11120139
Calculated stepsize too large (   1.0111 >    0.3000). Scaled with    0.2967.
The final length of the internal step   ....       0.3000
Converting the step to cartesian space:
 Initial RMS(Int)=    0.0381000381
Transforming coordinates:
 Iter   0:  RMS(Cart)=    0.0632833944 RMS(Int)=    0.7877315652
 Iter   1:  RMS(Cart)=    0.0022939735 RMS(Int)=    0.0015886785
 Iter   2:  RMS(Cart)=    0.0001544196 RMS(Int)=    0.0001214801
 Iter   3:  RMS(Cart)=    0.0000122327 RMS(Int)=    0.0000090409
 Iter   4:  RMS(Cart)=    0.0000009169 RMS(Int)=    0.0000007428
 Iter   5:  RMS(Cart)=    0.0000000723 RMS(Int)=    0.0000000550
done
Storing new coordinates                 .... done

                                .--------------------.
          ----------------------|Geometry convergence|-------------------------
          Item                value                   Tolerance       Converged
          ---------------------------------------------------------------------
          RMS gradient        0.0299787191            0.0001000000      NO
          MAX gradient        0.2113209981            0.0003000000      NO
          RMS step            0.0381000381            0.0020000000      NO
          MAX step            0.0890096406            0.0040000000      NO
          ........................................................
          Max(Bonds)      0.0471      Max(Angles)    2.09
          Max(Dihed)        5.10      Max(Improp)    0.00
          ---------------------------------------------------------------------

The optimization has not yet converged - more geometry cycles are needed


    ---------------------------------------------------------------------------
                         Redundant Internal Coordinates
                            (Angstroem and degrees)

        Definition                    Value    dE/dq     Step     New-Value  comp.(TS mode)
    ----------------------------------------------------------------------------
     1. B(C   1,C   0)                1.4627 -0.006697  0.0018    1.4645   
     2. B(Cl  2,C   0)                1.9318  0.000205 -0.0001    1.9317   
     3. B(H   4,C   1)                1.3295 -0.065749  0.0396    1.3691   
     4. B(H   4,Cl  3)                1.2319 -0.211321  0.0471    1.2790   
     5. B(H   5,C   0)                1.1134  0.010912 -0.0039    1.1095   
     6. B(H   6,C   1)                1.1238  0.012982 -0.0047    1.1191   
     7. B(C   7,C   0)                1.5505  0.012693 -0.0044    1.5461   
     8. B(H   8,C   7)                1.1107  0.011042 -0.0039    1.1068   
     9. B(H   9,C   7)                1.1012  0.009563 -0.0033    1.0979   
    10. B(H  10,C   7)                1.1115  0.010900 -0.0039    1.1076   
    11. B(N  11,C   1)                1.4651 -0.012976  0.0038    1.4689   
    12. B(H  12,N  11)                1.0451  0.023078 -0.0074    1.0377   
    13. B(H  13,N  11)                1.0453  0.021132 -0.0068    1.0386   
    14. A(H   5,C   0,C   7)          108.76 -0.000196    0.15    108.91   
    15. A(Cl  2,C   0,H   5)          106.34  0.004388   -0.44    105.90   
    16. A(C   1,C   0,H   5)          109.86 -0.001223    0.08    109.94   
    17. A(C   1,C   0,Cl  2)          117.69  0.007557   -0.40    117.29   
    18. A(C   1,C   0,C   7)          113.34 -0.005807    0.34    113.68   
    19. A(Cl  2,C   0,C   7)          100.14 -0.004722    0.27    100.41   
    20. A(H   4,C   1,H   6)          118.21  0.001458   -0.10    118.11   
    21. A(C   0,C   1,H   6)          107.88  0.006065   -0.18    107.69   
    22. A(C   0,C   1,H   4)           95.84 -0.025379    1.47     97.31   
    23. A(H   4,C   1,N  11)          116.63  0.018221   -1.04    115.58   
    24. A(C   0,C   1,N  11)          109.99  0.003293    0.00    109.99   
    25. A(H   6,C   1,N  11)          107.31 -0.005547    0.06    107.36   
    26. A(C   1,H   4,Cl  3)          166.60 -0.048151    2.09    168.69   
    27. A(H   8,C   7,H  10)          108.15  0.000781   -0.05    108.11   
    28. A(C   0,C   7,H  10)          109.38 -0.002234    0.11    109.49   
    29. A(H   8,C   7,H   9)          107.70 -0.006092    0.20    107.90   
    30. A(C   0,C   7,H   9)          116.25  0.012247   -0.49    115.76   
    31. A(C   0,C   7,H   8)          110.24  0.001510   -0.10    110.14   
    32. A(H   9,C   7,H  10)          104.75 -0.007152    0.37    105.11   
    33. A(H  12,N  11,H  13)          107.36  0.002798   -0.28    107.08   
    34. A(C   1,N  11,H  13)          108.97  0.004438   -0.24    108.73   
    35. A(C   1,N  11,H  12)          108.18  0.000175   -0.07    108.11   
    36. D(H   4,C   1,C   0,C   7)    -63.71  0.008038   -0.69    -64.40   
    37. D(H   6,C   1,C   0,Cl  2)    -57.84  0.005720   -0.55    -58.39   
    38. D(N  11,C   1,C   0,H   5)    -62.93 -0.006257    0.25    -62.68   
    39. D(H   6,C   1,C   0,C   7)     58.45  0.000301   -0.21     58.24   
    40. D(N  11,C   1,C   0,Cl  2)     58.90  0.004339   -0.58     58.31   
    41. D(H   6,C   1,C   0,H   5)   -179.67 -0.004876    0.29   -179.38   
    42. D(H   4,C   1,C   0,H   5)     58.17  0.002860   -0.20     57.97   
    43. D(H   4,C   1,C   0,Cl  2)    180.00  0.013456   -1.03    178.97   
    44. D(N  11,C   1,C   0,C   7)    175.19 -0.001080   -0.24    174.94   
    45. D(Cl  3,H   4,C   1,N  11)    115.83 -0.004389    0.34    116.17   
    46. D(Cl  3,H   4,C   1,H   6)   -113.89  0.008973   -0.86   -114.75   
    47. D(Cl  3,H   4,C   1,C   0)      0.00  0.000645   -0.18     -0.18   
    48. D(H   8,C   7,C   0,H   5)    177.98  0.002291    5.10    183.08          0.33
    49. D(H   8,C   7,C   0,Cl  2)     66.73 -0.000444    5.10     71.83          0.33
    50. D(H  10,C   7,C   0,H   5)     59.19  0.001794    5.10     64.29          0.33
    51. D(H  10,C   7,C   0,Cl  2)    -52.07 -0.000941    5.10    -46.97          0.33
    52. D(H  10,C   7,C   0,C   1)   -178.31 -0.003851    5.10   -173.22          0.33
    53. D(H   9,C   7,C   0,H   5)    -59.12  0.004608    5.10    -54.02          0.33
    54. D(H   9,C   7,C   0,Cl  2)   -170.38  0.001873    5.10   -165.28          0.33
    55. D(H   9,C   7,C   0,C   1)     63.37 -0.001036    5.10     68.47          0.33
    56. D(H   8,C   7,C   0,C   1)    -59.52 -0.003354    5.10    -54.42          0.33
    57. D(H  13,N  11,C   1,H   4)    -41.44  0.008403   -0.56    -42.00   
    58. D(H  13,N  11,C   1,C   0)     66.23 -0.011159    0.70     66.93   
    59. D(H  12,N  11,C   1,H   6)    -60.25  0.000483    0.02    -60.23   
    60. D(H  12,N  11,C   1,H   4)     74.99  0.014203   -1.06     73.93   
    61. D(H  13,N  11,C   1,H   6)   -176.68 -0.005317    0.52   -176.16   
    62. D(H  12,N  11,C   1,C   0)   -177.35 -0.005358    0.21   -177.14   
    ----------------------------------------------------------------------------

         *************************************************************
         *                GEOMETRY OPTIMIZATION CYCLE   2            *
         *************************************************************
---------------------------------
CARTESIAN COORDINATES (ANGSTROEM)
---------------------------------
  C     -0.162060   -0.003879   -0.297356
  C     -0.143679   -0.004683    1.167000
  Cl     1.542622    0.021496   -1.205485
  Cl    -2.776243    0.005457    1.285259
  H     -1.499333    0.000076    1.358344
  H     -0.718059    0.883167   -0.664774
  H      0.432384   -0.904664    1.499411
  C     -0.787601   -1.278138   -0.910063
  H     -0.281926   -2.179881   -0.514927
  H     -1.867746   -1.400674   -0.756092
  H     -0.654430   -1.262275   -2.009552
  N      0.570661    1.179903    1.661100
  H      0.608562    1.125103    2.696660
  H      0.019209    2.026390    1.420356

----------------------------
CARTESIAN COORDINATES (A.U.)
----------------------------
  NO LB      ZA    FRAG     MASS         X           Y           Z
   0 C     6.0000    0    12.011   -0.306248   -0.007330   -0.561921
   1 C     6.0000    0    12.011   -0.271515   -0.008849    2.205310
   2 Cl   17.0000    0    35.453    2.915132    0.040622   -2.278037
   3 Cl   17.0000    0    35.453   -5.246340    0.010312    2.428787
   4 H     1.0000    0     1.008   -2.833329    0.000144    2.566898
   5 H     1.0000    0     1.008   -1.356935    1.668945   -1.256241
   6 H     1.0000    0     1.008    0.817088   -1.709567    2.833476
   7 C     6.0000    0    12.011   -1.488350   -2.415330   -1.719770
   8 H     1.0000    0     1.008   -0.532764   -4.119378   -0.973071
   9 H     1.0000    0     1.008   -3.529528   -2.646890   -1.428806
  10 H     1.0000    0     1.008   -1.236693   -2.385354   -3.797503
  11 N     7.0000    0    14.007    1.078393    2.229694    3.139024
  12 H     1.0000    0     1.008    1.150016    2.126137    5.095948
  13 H     1.0000    0     1.008    0.036301    3.829323    2.684084

--------------------------------
INTERNAL COORDINATES (ANGSTROEM)
--------------------------------
 C      0   0   0     0.000000000000     0.00000000     0.00000000
 C      1   0   0     1.464470846313     0.00000000     0.00000000
 Cl     1   2   0     1.931652587005   117.32420967     0.00000000
 Cl     2   1   3     2.635238494735    91.85282182   178.94743572
 H      4   2   1     1.279011216156     5.84789450   179.82530605
 H      1   2   3     1.109496833222   109.74656088   238.96198596
 H      2   1   3     1.119067315538   107.69332990   301.60620135
 C      1   2   3     1.546107094177   113.63348872   116.69057908
 H      8   1   2     1.106788101213   110.19116158   305.68242857
 H      8   1   2     1.097923335536   115.75019124    68.52352380
 H      8   1   2     1.107638535278   109.44656769   186.90615482
 N      2   1   3     1.468898012821   109.99932432    58.30617566
 H     12   2   1     1.037701434474   108.11075697   182.85903514
 H     12   2   1     1.038555004218   108.73000447    66.93021077

---------------------------
INTERNAL COORDINATES (A.U.)
---------------------------
 C      0   0   0     0.000000000000     0.00000000     0.00000000
 C      1   0   0     2.767448830643     0.00000000     0.00000000
 Cl     1   2   0     3.650294375320   117.32420967     0.00000000
 Cl     2   1   3     4.979879052616    91.85282182   178.94743572
 H      4   2   1     2.416980920749     5.84789450   179.82530605
 H      1   2   3     2.096645161243   109.74656088   238.96198596
 H      2   1   3     2.114730751789   107.69332990   301.60620135
 C      1   2   3     2.921718981708   113.63348872   116.69057908
 H      8   1   2     2.091526399576   110.19116158   305.68242857
 H      8   1   2     2.074774420205   115.75019124    68.52352380
 H      8   1   2     2.093133487053   109.44656769   186.90615482
 N      2   1   3     2.775814962893   109.99932432    58.30617566
 H     12   2   1     1.960971519932   108.11075697   182.85903514
 H     12   2   1     1.962584532985   108.73000447    66.93021077


Diagonalization of the overlap matrix:
Smallest eigenvalue                        ... 2.290e-03
Time for diagonalization                   ...    0.004 sec
Threshold for overlap eigenvalues          ... 1.000e-08
Number of eigenvalues below threshold      ... 0
Time for construction of square roots      ...    0.001 sec
Total time needed                          ...    0.006 sec

--------------
SCF ITERATIONS
--------------
ITER       Energy         Delta-E        Max-DP      RMS-DP      [F,P]     Damp
               ***  Starting incremental Fock matrix formation  ***
  0  -1091.6831122221   0.000000000000 0.00337049  0.00013577  0.0254755 0.7000
                      *** Initiating the SOSCF procedure ***
                      *** Re-Reading the Fockian *** 
                      *** Removing any level shift *** 
ITER      Energy       Delta-E        Grad      Rot      Max-DP    RMS-DP
  1  -1091.68385929  -0.0007470682  0.001434  0.001434  0.010075  0.000417
               *** Restarting incremental Fock matrix formation ***
  2  -1091.68618304  -0.0023237470  0.001707  0.001596  0.005598  0.000167
  3  -1091.68643828  -0.0002552390  0.000614  0.000973  0.003487  0.000116
  4  -1091.68647896  -0.0000406860  0.000238  0.000162  0.000661  0.000020
[...]
             **** ENERGY FILE WAS UPDATED (run.en.tmp) ****
Total SCF time: 0 days 0 hours 1 min 14 sec 

------------------------------------------------------------------------------
                                ORCA  MP2 
------------------------------------------------------------------------------

MP2 will be done in the AO integral direct mode
The Q1-step will be done using symmetric double matrices
Dimension of the basis                    ...  148
Memory devoted for MP2                    ... 5000 MB   
Memory needed for all in one shot         ...  424 MB
Number of MOs that can be treated together...  400      
MP2 density construction                  ... relaxed
The MP2 gradient is requested => amplitudes will be stored on disk
Total number of MOs              ...   34
Number of MOs treated per batch  ...   34 
Number of batches necessary      ...    1 
OPERATORS   0/  0 PASS   0
-----------------------------------------------
 MP2 CORRELATION ENERGY   :     -1.050009569 Eh
-----------------------------------------------


---------------------
MP2 DENSITY FORMATION
---------------------

Completing the external part of the density      ... done
Storing the unrelaxed density                    ... done

Calculating G(D)                                 ... done
Completing the Lagrangian                        ... done
Solving the Z-vector equations                   ... 

------------------------------------------------------------------------------
                           ORCA CP-SCF CALCULATION
------------------------------------------------------------------------------

Input orbitals are from        ... run.gbw
Input Perturbation             ... run.pin.tmp
Wavefunction output            ... run.pout.tmp
Perturbation mode              ... Real perturbation
Solver                         ... POPLE
Max. number of iterations      ... 128
Convergence tolerance          ... 1.000e-11
Integral handling              ... Direct
Number of perturbations        ... 1
Number of operators            ... 1
Orbital ranges used for CP-SCF:
 Operator 0:  Orbitals   0... 33  to  34...147
Variables per vector in CP-SCF ... 3876
Number of vectors sought       ... 1
     CP-SCF ITERATION   0: 
     CP-SCF ITERATION   1:      0.003188958649
     CP-SCF ITERATION   2:      0.000312145248
     CP-SCF ITERATION   3:      0.000045756378
     CP-SCF ITERATION   4:      0.000004376940
     CP-SCF ITERATION   5:      0.000000644691
     CP-SCF ITERATION   6:      0.000000046617
     CP-SCF ITERATION   7:      0.000000003450
     CP-SCF ITERATION   8:      0.000000000277
     CP-SCF ITERATION   9:      0.000000000030
     CP-SCF ITERATION  10:      0.000000000004
                                                 ... done
Finalizing the relaxed density                   ... done
Transforming P to the AO basis                   ... done
Storing the relaxed density                      ... done

------------------------------------
ENERGY WEIGHTED DENSITY FINALIZATION
------------------------------------

Gathering the parts of the W-matrix              ...                                                      done
Forming the Z-density                            ... done
Transforming Z to the AO basis                   ... done
Calculating G(Z)                                 ... done
Finalizing the W-matrix                          ...                                                      done
Transforming W to the AO basis and storing       ... done

----------------------------------
MP2 DERIVATIVE INTEGRAL GENERATION
----------------------------------


Input Wavefunction Amplitudes       ... run.mp2tsaa.tmp.proc0
Input Correlated Electron Density   ... run.pmp2re
Input Energy Weighted Density       ... run.wmp2.tmp
Input SCF Electron Density          ... run.scfp.tmp

One-Electron Terms    ...
                        ... One-Electron Terms done
Prescreening matrices              ... done

Batch handling in the gradient evaluation:
Memory available                      ... 5000.0 MB
Memory per occupied orbital in Q2     ...    5.7 MB
Memory per occupied orbital in Q3     ...    0.0 MB
Total memory requirement per |i>      ...    5.7 MB
Max. Number of orbitals possible      ...    875
Number of orbitals treated per batch  ...     34
Number of batches to be done          ...      1
Batch   0: i=    0 ...    33

---------------------------------------
MP2 TOTAL ENERGY:    -1092.816858203 Eh
---------------------------------------

-----------------------------------
NORM OF THE MP2 GRADIENT:  0.008161
-----------------------------------

-------------------------   --------------------
FINAL SINGLE POINT ENERGY     -1092.816858202867
-------------------------   --------------------

------------------------------------------------------------------------------
                         ORCA GEOMETRY RELAXATION STEP
------------------------------------------------------------------------------

Reading the OPT-File                    .... done
Getting information on internals        .... done
Copying old internal coords+grads       .... done
Making the new internal coordinates     .... (new redundants).... done
Validating the new internal coordinates .... (new redundants).... done
Calculating the B-matrix                .... done
Calculating the G,G- and P matrices     .... done
Transforming gradient to internals      .... done
Projecting the internal gradient        .... done
Number of atoms                         ....  14
Number of internal coordinates          ....  60
Current Energy                          .... -1092.816858203 Eh
Current gradient norm                   ....     0.008160750 Eh/bohr
Maximum allowed component of the step   ....  0.300
Current trust radius                    ....  0.300
Updating the Hessian (Bofill)          .... Diagonalizing the Hessian               .... done
Dimension of the hessian                ....  60
Lowest eigenvalues of the Hessian:
 -0.006639509  0.005980632  0.016504877  0.025778275  0.056133961
Hessian has   1 negative eigenvalues
Taking P-RFO step
Searching for lambda that maximizes along the lowest mode
TS mode is mode number   0 with eigenvalue  -0.00663951 and components:
   1.   -0.05296618
   2.    0.37678775
   3.    0.34249213
   4.   -0.34451223
   5.    0.00049753
   6.    0.00052799
   7.   -0.01400098
   8.    0.00772123
   9.    0.00474755
  10.    0.00398261
  11.   -0.01479833
  12.   -0.00107614
  13.   -0.00797629
  14.   -0.02229857
  15.   -0.01680374
  16.   -0.02044865
  17.   -0.08798343
  18.    0.02499286
  19.    0.04158893
  20.    0.05882639
  21.   -0.00310706
  22.   -0.16032673
  23.    0.01578431
  24.    0.03368857
  25.   -0.00688717
  26.   -0.15959068
  27.    0.25306604
  28.    0.01494300
  29.   -0.01620492
  30.    0.04370861
  31.   -0.02836841
  32.   -0.01311523
  33.   -0.00270153
  34.   -0.03208305
  35.   -0.02264644
  36.    0.03660139
  37.   -0.02681073
  38.   -0.00616939
  39.   -0.19928987
  40.    0.09394765
  41.   -0.12692777
  42.   -0.14086290
  43.   -0.07853149
  44.   -0.04074586
  45.   -0.21322501
  46.   -0.09212965
  47.   -0.07359951
  48.   -0.19309303
  49.   -0.08186771
  50.   -0.20335496
  51.   -0.06333757
  52.   -0.18114633
  53.   -0.06992102
  54.   -0.05139088
  55.   -0.08095389
  56.   -0.08393489
  57.   -0.26888913
  58.   -0.10933512
  59.   -0.11231611
  60.   -0.29727035

Lambda that maximizes along the TS mode:       0.00017219
Searching for lambda that minimizes along all other modes
In cycle   1: lambdaN =  -0.00012600   step =   0.00012600
In cycle   2: lambdaN =  -0.00012600   step =   0.00000000
Lambda that minimizes along all other modes:  -0.00012600
The final length of the internal step   ....       0.1646
Converting the step to cartesian space:
 Initial RMS(Int)=    0.0212494648
Transforming coordinates:
 Iter   0:  RMS(Cart)=    0.0412823787 RMS(Int)=    0.8089454697
 Iter   1:  RMS(Cart)=    0.0022650575 RMS(Int)=    0.0014848878
 Iter   2:  RMS(Cart)=    0.0010195560 RMS(Int)=    0.0006820761
 Iter   3:  RMS(Cart)=    0.0005360398 RMS(Int)=    0.0003590618
 Iter   4:  RMS(Cart)=    0.0002825300 RMS(Int)=    0.0001891128
 Iter   5:  RMS(Cart)=    0.0001487208 RMS(Int)=    0.0000995139
 Iter   6:  RMS(Cart)=    0.0000782448 RMS(Int)=    0.0000523471
 Iter   7:  RMS(Cart)=    0.0000411549 RMS(Int)=    0.0000275308
 Iter   8:  RMS(Cart)=    0.0000216433 RMS(Int)=    0.0000144777
 Iter   9:  RMS(Cart)=    0.0000113813 RMS(Int)=    0.0000076130
 Iter  10:  RMS(Cart)=    0.0000059847 RMS(Int)=    0.0000040032
 Iter  11:  RMS(Cart)=    0.0000031469 RMS(Int)=    0.0000021049
 Iter  12:  RMS(Cart)=    0.0000016547 RMS(Int)=    0.0000011068
 Iter  13:  RMS(Cart)=    0.0000008701 RMS(Int)=    0.0000005820
 Iter  14:  RMS(Cart)=    0.0000004575 RMS(Int)=    0.0000003060
 Iter  15:  RMS(Cart)=    0.0000002406 RMS(Int)=    0.0000001609
 Iter  16:  RMS(Cart)=    0.0000001265 RMS(Int)=    0.0000000846
 Iter  17:  RMS(Cart)=    0.0000000665 RMS(Int)=    0.0000000445
done
Storing new coordinates                 .... done

                                .--------------------.
          ----------------------|Geometry convergence|-------------------------
          Item                value                   Tolerance       Converged
          ---------------------------------------------------------------------
          Energy change      -0.0001760212            0.0000050000      NO
          RMS gradient        0.0009929265            0.0001000000      NO
          MAX gradient        0.0052657650            0.0003000000      NO
          RMS step            0.0212494648            0.0020000000      NO
          MAX step            0.0668247918            0.0040000000      NO
          ........................................................
          Max(Bonds)      0.0354      Max(Angles)    2.31
          Max(Dihed)        3.11      Max(Improp)    0.00
          ---------------------------------------------------------------------

The optimization has not yet converged - more geometry cycles are needed


    ---------------------------------------------------------------------------
                         Redundant Internal Coordinates
                            (Angstroem and degrees)

        Definition                    Value    dE/dq     Step     New-Value  comp.(TS mode)
    ----------------------------------------------------------------------------
     1. B(C   1,C   0)                1.3843 -0.000059 -0.0047    1.3796   
     2. B(Cl  2,C   0)                2.5347  0.002408  0.0232    2.5579          0.38
     3. B(H   4,C   1)                1.3330  0.001649  0.0354    1.3684          0.34
     4. B(H   4,Cl  3)                1.6482 -0.002542 -0.0349    1.6133          0.34
     5. B(H   5,C   0)                1.0831 -0.000572  0.0002    1.0834   
     6. B(H   6,C   1)                1.0936  0.000310 -0.0003    1.0933   
     7. B(C   7,C   0)                1.4918 -0.000289 -0.0007    1.4911   
     8. B(H   8,C   7)                1.0898 -0.000031  0.0006    1.0903   
     9. B(H   9,C   7)                1.0934  0.000687  0.0000    1.0934   
    10. B(H  10,C   7)                1.0952  0.000168  0.0002    1.0953   
    11. B(N  11,C   1)                1.4357 -0.001197  0.0001    1.4357   
    12. B(H  12,N  11)                1.0121 -0.000219  0.0002    1.0123   
    13. B(H  13,N  11)                1.0162  0.000865 -0.0012    1.0149   
    14. A(C   1,C   0,Cl  2)          106.50  0.000183   -0.09    106.40   
    15. A(C   1,C   0,H   5)          116.98  0.000673   -0.39    116.59   
    16. A(Cl  2,C   0,C   7)          102.60 -0.000033    0.07    102.67   
    17. A(Cl  2,C   0,H   5)           79.85 -0.000515   -0.44     79.41   
    18. A(H   5,C   0,C   7)          117.59  0.000017   -0.03    117.56   
    19. A(C   1,C   0,C   7)          121.32 -0.000499    0.32    121.64   
    20. A(C   0,C   1,H   6)          115.62 -0.000756    0.77    116.40   
    21. A(H   4,C   1,N  11)          105.27 -0.000695   -0.37    104.90   
    22. A(C   0,C   1,H   4)           94.78  0.001777   -1.67     93.11   
    23. A(H   6,C   1,N  11)          114.97  0.000597    0.17    115.14   
    24. A(C   0,C   1,N  11)          120.61 -0.000191    0.26    120.87   
    25. A(H   4,C   1,H   6)           99.78 -0.000555    0.24    100.02   
    26. L(C   1,H   4,Cl  3,C   0, 1) 196.89  0.005266   -2.17    194.72   
    27. L(C   1,H   4,Cl  3,C   0, 2) 195.02  0.000247    2.31    197.33          0.25
    28. A(C   0,C   7,H  10)          110.56  0.000847    0.05    110.61   
    29. A(H   8,C   7,H   9)          109.13 -0.000091   -0.12    109.01   
    30. A(C   0,C   7,H   9)          111.02  0.000267    0.25    111.27   
    31. A(C   0,C   7,H   8)          109.35 -0.000184   -0.17    109.19   
    32. A(H   9,C   7,H  10)          108.54 -0.000575   -0.06    108.48   
    33. A(H   8,C   7,H  10)          108.17 -0.000288    0.04    108.21   
    34. A(H  12,N  11,H  13)          110.04 -0.000120   -0.52    109.52   
    35. A(C   1,N  11,H  13)          107.61  0.000156   -0.40    107.21   
    36. A(C   1,N  11,H  12)          111.05  0.000458    0.13    111.19   
    37. D(N  11,C   1,C   0,Cl  2)     53.69 -0.000474    0.04     53.73   
    38. D(H   4,C   1,C   0,H   5)     77.75  0.000134   -0.71     77.05   
    39. D(H   6,C   1,C   0,Cl  2)    -92.17 -0.000055   -1.77    -93.94   
    40. D(N  11,C   1,C   0,H   5)    -33.13 -0.000151    0.77    -32.37   
    41. D(H   4,C   1,C   0,Cl  2)    164.58 -0.000189   -1.43    163.15   
    42. D(H   4,C   1,C   0,C   7)    -78.90 -0.000399   -1.18    -80.08   
    43. D(H   6,C   1,C   0,H   5)   -179.00  0.000268   -1.04   -180.04   
    44. D(N  11,C   1,C   0,C   7)    170.21 -0.000683    0.29    170.51   
    45. D(H   6,C   1,C   0,C   7)     24.35 -0.000264   -1.52     22.83   
    46. D(H   9,C   7,C   0,Cl  2)    114.60  0.000478   -0.86    113.74   
    47. D(H   9,C   7,C   0,C   1)     -3.86  0.000557   -0.99     -4.85   
    48. D(H   8,C   7,C   0,H   5)     79.15 -0.000060   -1.34     77.81   
    49. D(H   8,C   7,C   0,Cl  2)     -5.87  0.000542   -0.77     -6.64   
    50. D(H   9,C   7,C   0,H   5)   -160.38 -0.000124   -1.44   -161.82   
    51. D(H   8,C   7,C   0,C   1)   -124.33  0.000621   -0.90   -125.23   
    52. D(H  10,C   7,C   0,H   5)    -39.84 -0.000106   -1.32    -41.16   
    53. D(H  10,C   7,C   0,Cl  2)   -124.86  0.000496   -0.75   -125.61   
    54. D(H  10,C   7,C   0,C   1)    116.67  0.000575   -0.87    115.80   
    55. D(H  13,N  11,C   1,H   6)    115.73 -0.000219   -0.34    115.39   
    56. D(H  13,N  11,C   1,H   4)   -135.52 -0.001020   -0.21   -135.73   
    57. D(H  13,N  11,C   1,C   0)    -30.34  0.000628   -2.39    -32.73          0.27
    58. D(H  12,N  11,C   1,H   6)   -123.77  0.000005   -1.06   -124.83   
    59. D(H  12,N  11,C   1,H   4)    -15.03 -0.000796   -0.92    -15.95   
    60. D(H  12,N  11,C   1,C   0)     90.15  0.000851   -3.11     87.05          0.30
    ----------------------------------------------------------------------------




    ----------------------------------------------------------------------------
                                  WARNING !!!
       The optimization did not converge but reached the maximum number of
       optimization cycles.
       Please check your results very carefully.
    ----------------------------------------------------------------------------



                            ***************************************
                            *     ORCA property calculations      *
                            ***************************************

                                    ---------------------
                                    Active property flags
                                    ---------------------
   (+) Dipole Moment


------------------------------------------------------------------------------
                       ORCA ELECTRIC PROPERTIES CALCULATION
------------------------------------------------------------------------------

Dipole Moment Calculation                       ... on
Quadrupole Moment Calculation                   ... off
Polarizability Calculation                      ... off
GBWName                                         ... run.gbw
Electron density file                           ... run.scfp.tmp
The origin for moment calculation is the CENTER OF MASS  = (-0.720726,  0.306468  0.838611)

-------------
DIPOLE MOMENT
-------------
                                X             Y             Z
Electronic contribution:     -0.16522       3.03718       0.72148
Nuclear contribution   :     -0.41237      -3.71442      -1.31061
                        -----------------------------------------
Total Dipole Moment    :     -0.57759      -0.67724      -0.58913
                        -----------------------------------------
Magnitude (a.u.)       :      1.06740
Magnitude (Debye)      :      2.71310


                         *** MP2 UNRELAXED DENSITY ***

------------------------------------------------------------------------------
                       ORCA ELECTRIC PROPERTIES CALCULATION
------------------------------------------------------------------------------

Dipole Moment Calculation                       ... on
Quadrupole Moment Calculation                   ... off
Polarizability Calculation                      ... off
GBWName                                         ... run.gbw
Electron density file                           ... run.pmp2ur
The origin for moment calculation is the CENTER OF MASS  = (-0.720726,  0.306468  0.838611)

-------------
DIPOLE MOMENT
-------------
                                X             Y             Z
Electronic contribution:     -0.16351       3.05160       0.74971
Nuclear contribution   :     -0.41237      -3.71442      -1.31061
                        -----------------------------------------
Total Dipole Moment    :     -0.57588      -0.66282      -0.56089
                        -----------------------------------------
Magnitude (a.u.)       :      1.04191
Magnitude (Debye)      :      2.64831


                           *** MP2 RELAXED DENSITY ***

------------------------------------------------------------------------------
                       ORCA ELECTRIC PROPERTIES CALCULATION
------------------------------------------------------------------------------

Dipole Moment Calculation                       ... on
Quadrupole Moment Calculation                   ... off
Polarizability Calculation                      ... off
GBWName                                         ... run.gbw
Electron density file                           ... run.pmp2re
The origin for moment calculation is the CENTER OF MASS  = (-0.720726,  0.306468  0.838611)

-------------
DIPOLE MOMENT
-------------
                                X             Y             Z
Electronic contribution:     -0.25559       3.19450       1.00013
Nuclear contribution   :     -0.41237      -3.71442      -1.31061
                        -----------------------------------------
Total Dipole Moment    :     -0.66797      -0.51991      -0.31047
                        -----------------------------------------
Magnitude (a.u.)       :      0.90160
Magnitude (Debye)      :      2.29168


Timings for individual modules:

Sum of individual times         ...     9762.692 sec (= 162.712 min)
GTO integral calculation        ...       17.637 sec (=   0.294 min)   0.2 %
SCF iterations                  ...     3822.256 sec (=  63.704 min)  39.2 %
MP2 module                      ...     5920.355 sec (=  98.673 min)  60.6 %
Geometry relaxation             ...        2.444 sec (=   0.041 min)   0.0 %
                             ****ORCA TERMINATED NORMALLY****
TOTAL RUN TIME: 0 days 2 hours 42 minutes 44 seconds 463 msec
