
                                 *****************
                                 * O   R   C   A *
                                 *****************

           --- An Ab Initio, DFT and Semiempirical electronic structure package ---

                  #######################################################
                  #                        -***-                        #
                  #  Department of molecular theory and spectroscopy    #
                  #              Directorship: Frank Neese              #
                  # Max Planck Institute for Chemical Energy Conversion #
                  #                  D-45470 Muelheim/Ruhr              #
                  #                       Germany                       #
                  #                                                     #
                  #                  All rights reserved                #
                  #                        -***-                        #
                  #######################################################


                         Program Version 4.0.1.2 - RELEASE -


 With contributions from (in alphabetic order):
   Daniel Aravena         : Magnetic Properties
   Michael Atanasov       : Ab Initio Ligand Field Theory
   Ute Becker             : Parallelization
   Martin Brehm           : Molecular dynamics
   Dmytro Bykov           : SCF Hessian
   Vijay G. Chilkuri      : MRCI spin determinant printing
   Dipayan Datta          : RHF DLPNO-CCSD density
   Achintya Kumar Dutta   : EOM-CC, STEOM-CC
   Dmitry Ganyushin       : Spin-Orbit,Spin-Spin,Magnetic field MRCI
   Yang Guo               : DLPNO-NEVPT2, CIM, IAO-localization
   Andreas Hansen         : Spin unrestricted coupled pair/coupled cluster methods
   Lee Huntington         : MR-EOM, pCC
   Robert Izsak           : Overlap fitted RIJCOSX, COSX-SCS-MP3, EOM
   Christian Kollmar      : KDIIS, OOCD, Brueckner-CCSD(T), CCSD density
   Simone Kossmann        : Meta GGA functionals, TD-DFT gradient, OOMP2, MP2 Hessian
   Martin Krupicka        : AUTO-CI
   Dagmar Lenk            : GEPOL surface
   Dimitrios Liakos       : Extrapolation schemes; parallel MDCI
   Dimitrios Manganas     : ROCIS; embedding schemes
   Dimitrios Pantazis     : SARC Basis sets
   Taras Petrenko         : DFT Hessian,TD-DFT gradient, ASA, ECA, R-Raman, ABS, FL, XAS/XES, NRVS
   Peter Pinski           : DLPNO-MP2
   Christoph Reimann      : Effective Core Potentials
   Marius Retegan         : Local ZFS, SOC
   Christoph Riplinger    : Optimizer, TS searches, QM/MM, DLPNO-CCSD(T), (RO)-DLPNO pert. Triples
   Tobias Risthaus        : Range-separated hybrids, TD-DFT gradient, RPA, STAB
   Michael Roemelt        : Restricted open shell CIS
   Masaaki Saitow         : Open-shell DLPNO
   Barbara Sandhoefer     : DKH picture change effects
   Kantharuban Sivalingam : CASSCF convergence, NEVPT2, FIC-MRCI
   Georgi Stoychev        : AutoAux
   Boris Wezisla          : Elementary symmetry handling
   Frank Wennmohs         : Technical directorship


 We gratefully acknowledge several colleagues who have allowed us to
 interface, adapt or use parts of their codes:
   Stefan Grimme, W. Hujo, H. Kruse,             : VdW corrections, initial TS optimization,
                  C. Bannwarth                     DFT functionals, gCP, sTDA/sTD-DF
   Ed Valeev                                     : LibInt (2-el integral package), F12 methods
   Garnet Chan, S. Sharma, J. Yang, R. Olivares  : DMRG
   Ulf Ekstrom                                   : XCFun DFT Library
   Mihaly Kallay                                 : mrcc  (arbitrary order and MRCC methods)
   Andreas Klamt, Michael Diedenhofen            : otool_cosmo (COSMO solvation model)
   Jiri Pittner, Ondrej Demel                    : Mk-CCSD
   Frank Weinhold                                : gennbo (NPA and NBO analysis)
   Christopher J. Cramer and Donald G. Truhlar   : smd solvation model


 Your calculation uses the libint2 library for the computation of 2-el integrals
 For citations please refer to: http://libint.valeyev.net

 This ORCA versions uses:
   CBLAS   interface :  Fast vector & matrix operations
   LAPACKE interface :  Fast linear algebra routines
   SCALAPACK package :  Parallel linear algebra routines




*****************************************
The coordinations will be read from file: inp.xyz
*****************************************


Your calculation utilizes the basis: 6-311G(d)
   H, Li - Ne  : R. Krishnan, J. S. Binkley, R. Seeger and J. A. Pople, J. Chem. Phys. 72, 650 (1980).
   Na - Ar     : A. D. McLean and G. S. Chandler J. Chem. Phys. 72, 5639, (1980).
   K  - Ca     : J.-P. Blaudeau, M. P. McGrath, L. A. Curtiss and L. Radom, J. Chem. Phys. 107, 5016 (1997).
   Ga - Kr     : L. A. Curtiss, M. P. McGrath, J.-P. Blandeau, N. E. Davis, R. C. Binning and L. Radom, J. Chem. Phys. 103, 6104 (1995).
   Pol./Diff.
   H, Li - Cl  : T. Clark, J. Chandrasekhar and P. v. R. Schleyer, J. Comp. Chem. 4, 294 (1983).
   H - Ne      : M. J. Frisch, J. A. Pople and J. S. Binkley, J. Chem. Phys. 80, 3265 (1984).

================================================================================
                                        WARNINGS
                       Please study these warnings very carefully!
================================================================================

Warning: TCutStore was < 0. Adjusted to Thresh (uncritical)

WARNING: Geometry Optimization
  ===> : Switching off AutoStart
         For restart on a previous wavefunction, please use MOREAD

WARNING: Post HF methods need fully converged wavefunctions
  ===> : Setting SCFConvForced true
         You can overwrite this default with %scf ConvForced false 


INFO   : the flag for use of LIBINT has been found!

================================================================================
                                       INPUT FILE
================================================================================
NAME = run.inp
|  1> ! MP2 6-311G(d) OptTS NoFrozenCore ExtremeSCF NumFreq
|  2> 
|  3> %pal nprocs 1
|  4> end
|  5> 
|  6> %mp2 MaxCore 10000
|  7> end
|  8> 
|  9> %geom
| 10> Calc_Hess true
| 11> NumHess true
| 12> end
| 13> 
| 14> *xyzfile -1 1 inp.xyz
| 15> 
| 16>                          ****END OF INPUT****
================================================================================

                       *****************************
                       * Geometry Optimization Run *
                       *****************************

Geometry optimization settings:
Update method            Update   .... Bofill
Choice of coordinates    CoordSys .... Redundant Internals
Initial Hessian          InHess   .... Almoef's Model

Convergence Tolerances:
Energy Change            TolE     ....  5.0000e-06 Eh
Max. Gradient            TolMAXG  ....  3.0000e-04 Eh/bohr
RMS Gradient             TolRMSG  ....  1.0000e-04 Eh/bohr
Max. Displacement        TolMAXD  ....  4.0000e-03 bohr
RMS Displacement         TolRMSD  ....  2.0000e-03 bohr

------------------------------------------------------------------------------
                        ORCA OPTIMIZATION COORDINATE SETUP
------------------------------------------------------------------------------

The optimization will be done in new redundant internal coordinates
Making redundant internal coordinates   ...  (new redundants) done
Following TS mode number                ...     0
Evaluating the initial hessian          ...  (Is done on the fly) done
Evaluating the coordinates              ...  done
Calculating the B-matrix                .... done
Calculating the G-matrix                .... done
Diagonalizing the G-matrix              .... done
The first mode is                       ....   67
The number of degrees of freedom        ....   36

    -----------------------------------------------------------------
                    Redundant Internal Coordinates


    -----------------------------------------------------------------
         Definition                    Initial Value    d2E/dq (diagonal element)
    -----------------------------------------------------------------
      1. B(C   1,C   0)                  1.3711         0.000000   
      2. B(Cl  2,C   1)                  3.2571         0.000000   
      3. B(Cl  2,C   0)                  2.5858         0.000000   
      4. B(H   4,C   1)                  1.4348         0.000000   
      5. B(H   4,Cl  3)                  1.5553         0.000000   
      6. B(H   5,C   0)                  1.0848         0.000000   
      7. B(H   5,Cl  2)                  2.6260         0.000000   
      8. B(H   6,C   1)                  1.0915         0.000000   
      9. B(C   7,C   0)                  1.4906         0.000000   
     10. B(C   7,Cl  2)                  3.2078         0.000000   
     11. B(H   8,C   7)                  1.0885         0.000000   
     12. B(H   8,Cl  2)                  2.9649         0.000000   
     13. B(H   9,C   7)                  1.0911         0.000000   
     14. B(H  10,C   7)                  1.0980         0.000000   
     15. B(N  11,C   1)                  1.4389         0.000000   
     16. B(H  12,N  11)                  1.0133         0.000000   
     17. B(H  13,N  11)                  1.0160         0.000000   
     18. B(H  13,Cl  2)                  2.8758         0.000000   
     19. A(C   1,C   0,Cl  2)          106.7420         0.000000   
     20. A(Cl  2,C   0,H   5)           80.0698         0.000000   
     21. A(C   1,C   0,H   5)          116.6997         0.000000   
     22. A(Cl  2,C   0,C   7)          100.3250         0.000000   
     23. A(C   1,C   0,C   7)          122.7792         0.000000   
     24. A(H   5,C   0,C   7)          117.0346         0.000000   
     25. A(C   0,C   1,Cl  2)           49.4856         0.000000   
     26. A(H   6,C   1,N  11)          115.2025         0.000000   
     27. A(H   4,C   1,H   6)           99.9434         0.000000   
     28. A(C   0,C   1,N  11)          121.0991         0.000000   
     29. A(C   0,C   1,H   6)          117.6141         0.000000   
     30. A(C   0,C   1,H   4)           90.3030         0.000000   
     31. A(Cl  2,C   1,N  11)           90.0113         0.000000   
     32. A(Cl  2,C   1,H   6)          109.1299         0.000000   
     33. A(Cl  2,C   1,H   4)          137.9156         0.000000   
     34. A(H   4,C   1,N  11)          104.6291         0.000000   
     35. A(C   0,Cl  2,C   1)           23.7724         0.000000   
     36. A(C   1,Cl  2,C   7)           45.7392         0.000000   
     37. A(C   0,Cl  2,C   7)           27.2037         0.000000   
     38. A(C   1,H   4,Cl  3)          166.8723         0.000000   
     39. A(Cl  2,C   7,H   9)           97.5083         0.000000   
     40. A(C   0,C   7,Cl  2)           52.4713         0.000000   
     41. A(H   8,C   7,H   9)          108.7637         0.000000   
     42. A(C   0,C   7,H   9)          111.1149         0.000000   
     43. A(H   9,C   7,H  10)          108.7211         0.000000   
     44. A(C   0,C   7,H   8)          109.9659         0.000000   
     45. A(H   8,C   7,H  10)          109.0049         0.000000   
     46. A(Cl  2,C   7,H   8)           67.3934         0.000000   
     47. A(C   0,C   7,H  10)          109.2319         0.000000   
     48. A(Cl  2,C   7,H  10)          152.8310         0.000000   
     49. A(H  12,N  11,H  13)          109.1432         0.000000   
     50. A(C   1,N  11,H  13)          106.8539         0.000000   
     51. A(C   1,N  11,H  12)          110.9608         0.000000   
     52. D(Cl  2,C   1,C   0,C   7)    114.6025         0.000000   
     53. D(N  11,C   1,C   0,C   7)    173.5947         0.000000   
     54. D(H   4,C   1,C   0,Cl  2)    166.3385         0.000000   
     55. D(N  11,C   1,C   0,Cl  2)     58.9922         0.000000   
     56. D(N  11,C   1,C   0,H   5)    -28.1256         0.000000   
     57. D(H   4,C   1,C   0,H   5)     79.2208         0.000000   
     58. D(H   6,C   1,C   0,Cl  2)    -92.2624         0.000000   
     59. D(Cl  2,C   1,C   0,H   5)    -87.1177         0.000000   
     60. D(H   4,C   1,C   0,C   7)    -79.0590         0.000000   
     61. D(H   6,C   1,C   0,H   5)   -179.3801         0.000000   
     62. D(H   6,C   1,C   0,C   7)     22.3401         0.000000   
     63. D(C   7,Cl  2,C   0,C   1)    129.0115         0.000000   
     64. D(C   1,Cl  2,C   0,H   5)    115.0668         0.000000   
     65. D(C   7,Cl  2,C   0,H   5)   -115.9217         0.000000   
     66. D(C   7,Cl  2,C   1,H   4)    -50.3693         0.000000   
     67. D(C   1,Cl  2,C   0,C   7)   -129.0115         0.000000   
     68. D(C   7,Cl  2,C   1,H   6)     80.6862         0.000000   
     69. D(C   0,Cl  2,C   1,H   4)    -20.6338         0.000000   
     70. D(C   7,Cl  2,C   1,N  11)   -162.5202         0.000000   
     71. D(C   0,Cl  2,C   1,N  11)   -132.7847         0.000000   
     72. D(C   0,Cl  2,C   1,H   6)    110.4218         0.000000   
     73. D(C   7,Cl  2,C   1,C   0)    -29.7355         0.000000   
     74. D(Cl  3,H   4,C   1,Cl  2)   -138.0273         0.000000   
     75. D(Cl  3,H   4,C   1,N  11)    -31.2087         0.000000   
     76. D(Cl  3,H   4,C   1,H   6)     88.3001         0.000000   
     77. D(Cl  3,H   4,C   1,C   0)   -153.5671         0.000000   
     78. D(H   9,C   7,C   0,C   1)    -34.6393         0.000000   
     79. D(H   8,C   7,C   0,Cl  2)    -37.3668         0.000000   
     80. D(H   8,C   7,C   0,H   5)     46.6738         0.000000   
     81. D(H   9,C   7,C   0,H   5)    167.1486         0.000000   
     82. D(H   8,C   7,C   0,C   1)   -155.1142         0.000000   
     83. D(H  10,C   7,Cl  2,C   1)     79.9926         0.000000   
     84. D(H   9,C   7,Cl  2,C   1)    -84.9770         0.000000   
     85. D(H   9,C   7,Cl  2,C   0)   -110.9122         0.000000   
     86. D(H   8,C   7,Cl  2,C   1)    167.7712         0.000000   
     87. D(H   8,C   7,Cl  2,C   0)    141.8361         0.000000   
     88. D(C   0,C   7,Cl  2,C   1)     25.9352         0.000000   
     89. D(Cl  2,C   7,C   0,H   5)     84.0405         0.000000   
     90. D(Cl  2,C   7,C   0,C   1)   -117.7474         0.000000   
     91. D(H  10,C   7,C   0,Cl  2)   -156.9503         0.000000   
     92. D(H  10,C   7,C   0,H   5)    -72.9098         0.000000   
     93. D(H  10,C   7,Cl  2,C   0)     54.0575         0.000000   
     94. D(H  10,C   7,C   0,C   1)     85.3023         0.000000   
     95. D(H   9,C   7,C   0,Cl  2)     83.1081         0.000000   
     96. D(H  13,N  11,C   1,Cl  2)      6.6467         0.000000   
     97. D(H  13,N  11,C   1,H   4)   -133.4454         0.000000   
     98. D(H  13,N  11,C   1,H   6)    117.8870         0.000000   
     99. D(H  13,N  11,C   1,C   0)    -34.0158         0.000000   
    100. D(H  12,N  11,C   1,Cl  2)    125.5271         0.000000   
    101. D(H  12,N  11,C   1,H   4)    -14.5650         0.000000   
    102. D(H  12,N  11,C   1,H   6)   -123.2326         0.000000   
    103. D(H  12,N  11,C   1,C   0)     84.8646         0.000000   
    -----------------------------------------------------------------

Number of atoms                         .... 14
Number of degrees of freedom            .... 103

         *************************************************************
         *                GEOMETRY OPTIMIZATION CYCLE   1            *
         *************************************************************
---------------------------------
CARTESIAN COORDINATES (ANGSTROEM)
---------------------------------
  C     -0.270038   -0.124375   -0.178851
  C     -0.232011   -0.094210    1.191373
  Cl     2.168583    0.138568   -0.997662
  Cl    -3.126878    0.437540    1.592113
  H     -1.654833    0.085307    1.234499
  H     -0.344913    0.831861   -0.685531
  H     -0.146312   -1.047385    1.716218
  C     -0.681394   -1.332911   -0.948353
  H     -0.240581   -1.307895   -1.943248
  H     -0.361320   -2.246784   -0.445548
  H     -1.775333   -1.346917   -1.042193
  N      0.299246    1.042797    1.895302
  H     -0.408076    1.758559    2.013949
  H      1.056219    1.413245    1.327811

----------------------------
CARTESIAN COORDINATES (A.U.)
----------------------------
  NO LB      ZA    FRAG     MASS         X           Y           Z
   0 C     6.0000    0    12.011   -0.510299   -0.235035   -0.337979
   1 C     6.0000    0    12.011   -0.438438   -0.178031    2.251369
   2 Cl   17.0000    0    35.453    4.098028    0.261855   -1.885308
   3 Cl   17.0000    0    35.453   -5.908943    0.826830    3.008658
   4 H     1.0000    0     1.008   -3.127181    0.161207    2.332866
   5 H     1.0000    0     1.008   -0.651790    1.571989   -1.295465
   6 H     1.0000    0     1.008   -0.276490   -1.979271    3.243182
   7 C     6.0000    0    12.011   -1.287648   -2.518836   -1.792127
   8 H     1.0000    0     1.008   -0.454632   -2.471563   -3.672207
   9 H     1.0000    0     1.008   -0.682796   -4.245807   -0.841964
  10 H     1.0000    0     1.008   -3.354893   -2.545304   -1.969460
  11 N     7.0000    0    14.007    0.565493    1.970600    3.581602
  12 H     1.0000    0     1.008   -0.771151    3.323195    3.805812
  13 H     1.0000    0     1.008    1.995965    2.670646    2.509199

--------------------------------
INTERNAL COORDINATES (ANGSTROEM)
--------------------------------
 C      0   0   0     0.000000000000     0.00000000     0.00000000
 C      1   0   0     1.371083297548     0.00000000     0.00000000
 Cl     1   2   0     2.585820176855   106.74199360     0.00000000
 Cl     2   1   3     2.970454854308    96.41524691   163.28493282
 H      2   1   3     1.434750063446    90.30297680   166.33847685
 H      1   2   3     1.084766423944   116.69966633   272.88229161
 H      2   1   3     1.091489723639   117.61414228   267.73756739
 C      1   2   3     1.490605415761   122.77918052   114.60250269
 H      8   1   2     1.088466274310   109.96588668   204.88584615
 H      8   1   2     1.091065645135   111.11490673   325.36071933
 H      8   1   2     1.098045708887   109.23192744    85.30230150
 N      2   1   3     1.438935216586   121.09907174    58.99215530
 H     12   2   1     1.013260636385   110.96081804    84.86459035
 H     12   2   1     1.016015318434   106.85394356   325.98420675

---------------------------
INTERNAL COORDINATES (A.U.)
---------------------------
 C      0   0   0     0.000000000000     0.00000000     0.00000000
 C      1   0   0     2.590971939159     0.00000000     0.00000000
 Cl     1   2   0     4.886491965824   106.74199360     0.00000000
 Cl     2   1   3     5.613346167819    96.41524691   163.28493282
 H      2   1   3     2.711284690538    90.30297680   166.33847685
 H      1   2   3     2.049911460527   116.69966633   272.88229161
 H      2   1   3     2.062616655668   117.61414228   267.73756739
 C      1   2   3     2.816836009527   122.77918052   114.60250269
 H      8   1   2     2.056903164456   109.96588668   204.88584615
 H      8   1   2     2.061815263435   111.11490673   325.36071933
 H      8   1   2     2.075005672325   109.23192744    85.30230150
 N      2   1   3     2.719193483802   121.09907174    58.99215530
 H     12   2   1     1.914785105050   110.96081804    84.86459035
 H     12   2   1     1.919990699710   106.85394356   325.98420675

---------------------
BASIS SET INFORMATION
---------------------
There are 4 groups of distinct atoms

 Group   1 Type C   : 11s5p1d contracted to 4s3p1d pattern {6311/311/1}
 Group   2 Type Cl  : 13s10p1d contracted to 6s5p1d pattern {631111/52111/1}
 Group   3 Type H   : 5s contracted to 3s pattern {311}
 Group   4 Type N   : 11s5p1d contracted to 4s3p1d pattern {6311/311/1}

Atom   0C    basis set group =>   1
Atom   1C    basis set group =>   1
Atom   2Cl   basis set group =>   2
Atom   3Cl   basis set group =>   2
Atom   4H    basis set group =>   3
Atom   5H    basis set group =>   3
Atom   6H    basis set group =>   3
Atom   7C    basis set group =>   1
Atom   8H    basis set group =>   3
Atom   9H    basis set group =>   3
Atom  10H    basis set group =>   3
Atom  11N    basis set group =>   4
Atom  12H    basis set group =>   3
Atom  13H    basis set group =>   3
------------------------------------------------------------------------------
                           ORCA GTO INTEGRAL CALCULATION
------------------------------------------------------------------------------

                         BASIS SET STATISTICS AND STARTUP INFO

 # of primitive gaussian shells          ...  156
 # of primitive gaussian functions       ...  260
 # of contracted shells                  ...   80
 # of contracted basis functions         ...  148
 Highest angular momentum                ...    2
 Maximum contraction depth               ...    6
 Integral package used                   ... LIBINT
 Integral threshhold            Thresh   ...  2.500e-11
 Primitive cut-off              TCut     ...  2.500e-12


------------------------------ INTEGRAL EVALUATION ----------------------------


 * One electron integrals 
 Pre-screening matrix                    ... done
 Shell pair data                         ... done (   0.002 sec)

-------------------------------------------------------------------------------
                                 ORCA SCF
-------------------------------------------------------------------------------

------------
SCF SETTINGS
------------
Hamiltonian:
 Ab initio Hamiltonian  Method          .... Hartree-Fock(GTOs)


General Settings:
 Integral files         IntName         .... run
 Hartree-Fock type      HFTyp           .... RHF
 Total Charge           Charge          ....   -1
 Multiplicity           Mult            ....    1
 Number of Electrons    NEL             ....   68
 Basis Dimension        Dim             ....  148
 Nuclear Repulsion      ENuc            ....    331.3076274418 Eh

Convergence Acceleration:
 DIIS                   CNVDIIS         .... on
   Start iteration      DIISMaxIt       ....    12
   Startup error        DIISStart       ....  0.200000
   # of expansion vecs  DIISMaxEq       ....     5
   Bias factor          DIISBfac        ....   1.050
   Max. coefficient     DIISMaxC        ....  10.000
 Newton-Raphson         CNVNR           .... off
 SOSCF                  CNVSOSCF        .... on
   Start iteration      SOSCFMaxIt      ....   150
   Startup grad/error   SOSCFStart      ....  0.003300
 Level Shifting         CNVShift        .... on
   Level shift para.    LevelShift      ....    0.2500
   Turn off err/grad.   ShiftErr        ....    0.0010
 Zerner damping         CNVZerner       .... off
 Static damping         CNVDamp         .... on
   Fraction old density DampFac         ....    0.7000
   Max. Damping (<1)    DampMax         ....    0.9800
   Min. Damping (>=0)   DampMin         ....    0.0000
   Turn off err/grad.   DampErr         ....    0.1000
 Fernandez-Rico         CNVRico         .... off

SCF Procedure:
 Maximum # iterations   MaxIter         ....   125
 SCF integral mode      SCFMode         .... Direct
   Integral package                     .... LIBINT
 Reset frequeny         DirectResetFreq ....    20
 Integral Threshold     Thresh          ....  2.500e-11 Eh
 Primitive CutOff       TCut            ....  2.500e-12 Eh

Convergence Tolerance:
 Convergence Check Mode ConvCheckMode   .... Total+1el-Energy
 Convergence forced     ConvForced      .... 1
 Energy Change          TolE            ....  1.000e-08 Eh
 1-El. energy change                    ....  1.000e-05 Eh
 Orbital Gradient       TolG            ....  1.000e-05
 Orbital Rotation angle TolX            ....  1.000e-05
 DIIS Error             TolErr          ....  5.000e-07


Diagonalization of the overlap matrix:
Smallest eigenvalue                        ... 2.087e-03
Time for diagonalization                   ...    0.005 sec
Threshold for overlap eigenvalues          ... 1.000e-08
Number of eigenvalues below threshold      ... 0
Time for construction of square roots      ...    0.001 sec
Total time needed                          ...    0.006 sec

-------------------
DFT GRID GENERATION
-------------------

General Integration Accuracy     IntAcc      ...  4.340
Radial Grid Type                 RadialGrid  ... Gauss-Chebyshev
Angular Grid (max. acc.)         AngularGrid ... Lebedev-110
Angular grid pruning method      GridPruning ... 3 (G Style)
Weight generation scheme         WeightScheme... Becke
Basis function cutoff            BFCut       ...    1.0000e-11
Integration weight cutoff        WCut        ...    1.0000e-14
Grids for H and He will be reduced by one unit

# of grid points (after initial pruning)     ...  16710 (   0.0 sec)
# of grid points (after weights+screening)   ...  15673 (   0.0 sec)
nearest neighbour list constructed           ...    0.0 sec
Grid point re-assignment to atoms done       ...    0.0 sec
Grid point division into batches done        ...    0.0 sec
Reduced shell lists constructed in    0.3 sec

Total number of grid points                  ...    15673
Total number of batches                      ...      252
Average number of points per batch           ...       62
Average number of grid points per atom       ...     1120
Average number of shells per batch           ...    51.77 (64.72%)
Average number of basis functions per batch  ...    97.23 (65.70%)
Average number of large shells per batch     ...    40.38 (77.99%)
Average number of large basis fcns per batch ...    75.37 (77.52%)
Maximum spatial batch extension              ...  21.15, 22.20, 19.75 au
Average spatial batch extension              ...   3.94,  4.02,  4.03 au

Time for grid setup =    0.368 sec

------------------------------
INITIAL GUESS: MODEL POTENTIAL
------------------------------
Loading Hartree-Fock densities                     ... done
Calculating cut-offs                               ... done
Setting up the integral package                    ... done
Initializing the effective Hamiltonian             ... done
Starting the Coulomb interaction                   ... done (   0.2 sec)
Reading the grid                                   ... done
Mapping shells                                     ... done
Starting the XC term evaluation                    ... done (   0.3 sec)
Transforming the Hamiltonian                       ... done (   0.0 sec)
Diagonalizing the Hamiltonian                      ... done (   0.0 sec)
Back transforming the eigenvectors                 ... done (   0.0 sec)
Now organizing SCF variables                       ... done
                      ------------------
                      INITIAL GUESS DONE (   0.9 sec)
                      ------------------
--------------
SCF ITERATIONS
--------------
ITER       Energy         Delta-E        Max-DP      RMS-DP      [F,P]     Damp
               ***  Starting incremental Fock matrix formation  ***
  0  -1091.4280111110   0.000000000000 0.05934285  0.00176509  0.6460554 0.7000
  1  -1091.5447477371  -0.116736626062 0.04431025  0.00138733  0.4552804 0.7000
  2  -1091.6164128882  -0.071665151127 0.02781894  0.00089416  0.3210312 0.7000
  3  -1091.6621199306  -0.045707042410 0.01678154  0.00055933  0.2265016 0.7000
                               ***Turning on DIIS***
  4  -1091.6929588136  -0.030838883034 0.01005683  0.00036298  0.1596340 0.7000
  5  -1092.1062957901  -0.413336976450 0.00665602  0.00025946  0.1124004 0.7000
  6  -1092.0395978036   0.066697986436 0.01991951  0.00069678  0.0787475 0.0000
  7  -1091.7750490421   0.264548761523 0.00567807  0.00012158  0.0042691 0.0000
                      *** Initiating the SOSCF procedure ***
                           *** Shutting down DIIS ***
                      *** Re-Reading the Fockian *** 
                      *** Removing any level shift *** 
ITER      Energy       Delta-E        Grad      Rot      Max-DP    RMS-DP
  8  -1091.77246634   0.0025827061  0.002738  0.002738  0.004718  0.000098
               *** Restarting incremental Fock matrix formation ***
  9  -1091.76550131   0.0069650237  0.001210  0.002474  0.002607  0.000056
 10  -1091.76551844  -0.0000171280  0.000439  0.002389  0.003428  0.000072
 11  -1091.76552550  -0.0000070599  0.000069  0.000125  0.000293  0.000009
 12  -1091.76552583  -0.0000003336  0.000043  0.000093  0.000068  0.000003
 13  -1091.76552586  -0.0000000302  0.000014  0.000068  0.000052  0.000002
 14  -1091.76552587  -0.0000000061  0.000004  0.000008  0.000018  0.000000
                  ***Gradient check signals convergence***
              ***Rediagonalizing the Fockian in SOSCF/NRSCF***

               *****************************************************
               *                     SUCCESS                       *
               *           SCF CONVERGED AFTER  15 CYCLES          *
               *****************************************************


----------------
TOTAL SCF ENERGY
----------------

Total Energy       :        -1091.76552587 Eh          -29708.45031 eV

Components:
Nuclear Repulsion  :          331.30762744 Eh            9015.33887 eV
Electronic Energy  :        -1423.07315331 Eh          -38723.78918 eV
One Electron Energy:        -2174.79555038 Eh          -59179.19554 eV
Two Electron Energy:          751.72239707 Eh           20455.40636 eV

Virial components:
Potential Energy   :        -2183.58936967 Eh          -59418.48753 eV
Kinetic Energy     :         1091.82384380 Eh           29710.03722 eV
Virial Ratio       :            1.99994659


---------------
SCF CONVERGENCE
---------------

  Last Energy change         ...   -4.7180e-10  Tolerance :   1.0000e-08
  Last MAX-Density change    ...    2.3501e-06  Tolerance :   1.0000e-07
  Last RMS-Density change    ...    9.9693e-08  Tolerance :   5.0000e-09
  Last Orbital Gradient      ...    8.5373e-07  Tolerance :   1.0000e-05
  Last Orbital Rotation      ...    1.6570e-06  Tolerance :   1.0000e-05

             **** THE GBW FILE WAS UPDATED (run.gbw) ****
             **** DENSITY FILE WAS UPDATED (run.scfp.tmp) ****
             **** ENERGY FILE WAS UPDATED (run.en.tmp) ****
----------------
ORBITAL ENERGIES
----------------

  NO   OCC          E(Eh)            E(eV) 
   0   2.0000    -104.635174     -2847.2678 
   1   2.0000    -104.566162     -2845.3899 
   2   2.0000     -15.414404      -419.4473 
   3   2.0000     -11.178885      -304.1929 
   4   2.0000     -11.123922      -302.6973 
   5   2.0000     -11.122890      -302.6692 
   6   2.0000     -10.361839      -281.9600 
   7   2.0000     -10.292146      -280.0635 
   8   2.0000      -7.829483      -213.0511 
   9   2.0000      -7.827865      -213.0070 
  10   2.0000      -7.827860      -213.0069 
  11   2.0000      -7.759188      -211.1382 
  12   2.0000      -7.758748      -211.1263 
  13   2.0000      -7.758700      -211.1250 
  14   2.0000      -1.071533       -29.1579 
  15   2.0000      -0.954393       -25.9704 
  16   2.0000      -0.892249       -24.2793 
  17   2.0000      -0.810807       -22.0632 
  18   2.0000      -0.804424       -21.8895 
  19   2.0000      -0.664137       -18.0721 
  20   2.0000      -0.546039       -14.8585 
  21   2.0000      -0.529719       -14.4144 
  22   2.0000      -0.497921       -13.5491 
  23   2.0000      -0.473716       -12.8905 
  24   2.0000      -0.435706       -11.8562 
  25   2.0000      -0.413154       -11.2425 
  26   2.0000      -0.404833       -11.0161 
  27   2.0000      -0.287071        -7.8116 
  28   2.0000      -0.281058        -7.6480 
  29   2.0000      -0.280159        -7.6235 
  30   2.0000      -0.257478        -7.0063 
  31   2.0000      -0.217282        -5.9125 
  32   2.0000      -0.215905        -5.8751 
  33   2.0000      -0.180521        -4.9122 
  34   0.0000       0.231908         6.3105 
  35   0.0000       0.279661         7.6100 
  36   0.0000       0.293126         7.9764 
  37   0.0000       0.313256         8.5241 
  38   0.0000       0.344358         9.3705 
  39   0.0000       0.346295         9.4232 
  40   0.0000       0.360374         9.8063 
  41   0.0000       0.374310        10.1855 
  42   0.0000       0.413998        11.2654 
  43   0.0000       0.472213        12.8496 
  44   0.0000       0.492569        13.4035 
  45   0.0000       0.527055        14.3419 
  46   0.0000       0.552932        15.0460 
  47   0.0000       0.581357        15.8195 
  48   0.0000       0.589208        16.0332 
  49   0.0000       0.596836        16.2407 
  50   0.0000       0.617738        16.8095 
  51   0.0000       0.636408        17.3175 
  52   0.0000       0.647449        17.6180 
  53   0.0000       0.659687        17.9510 
  54   0.0000       0.684396        18.6234 
  55   0.0000       0.693756        18.8781 
  56   0.0000       0.732220        19.9247 
  57   0.0000       0.737137        20.0585 
  58   0.0000       0.774848        21.0847 
  59   0.0000       0.782542        21.2941 
  60   0.0000       0.852071        23.1860 
  61   0.0000       0.871298        23.7092 
  62   0.0000       0.897791        24.4301 
  63   0.0000       0.908904        24.7325 
  64   0.0000       0.929153        25.2835 
  65   0.0000       0.932927        25.3862 
  66   0.0000       0.945825        25.7372 
  67   0.0000       0.970415        26.4063 
  68   0.0000       1.025165        27.8962 
  69   0.0000       1.044808        28.4307 
  70   0.0000       1.091031        29.6885 
  71   0.0000       1.131309        30.7845 
  72   0.0000       1.146208        31.1899 
  73   0.0000       1.184318        32.2269 
  74   0.0000       1.223759        33.3002 
  75   0.0000       1.289335        35.0846 
  76   0.0000       1.304111        35.4867 
  77   0.0000       1.335607        36.3437 
  78   0.0000       1.341739        36.5106 
  79   0.0000       1.342390        36.5283 
  80   0.0000       1.348495        36.6944 
  81   0.0000       1.410846        38.3911 
  82   0.0000       1.415275        38.5116 
  83   0.0000       1.432324        38.9755 
  84   0.0000       1.440793        39.2060 
  85   0.0000       1.469124        39.9769 
  86   0.0000       1.559837        42.4453 
  87   0.0000       1.587746        43.2048 
  88   0.0000       1.630995        44.3816 
  89   0.0000       1.670699        45.4620 
  90   0.0000       1.746652        47.5288 
  91   0.0000       1.791439        48.7475 
  92   0.0000       1.861088        50.6428 
  93   0.0000       1.890316        51.4381 
  94   0.0000       1.903099        51.7860 
  95   0.0000       1.987883        54.0930 
  96   0.0000       2.056431        55.9583 
  97   0.0000       2.123648        57.7874 
  98   0.0000       2.159884        58.7734 
  99   0.0000       2.319817        63.1254 
 100   0.0000       2.332960        63.4831 
 101   0.0000       2.393519        65.1310 
 102   0.0000       2.406996        65.4977 
 103   0.0000       2.463059        67.0232 
 104   0.0000       2.566950        69.8502 
 105   0.0000       2.657164        72.3051 
 106   0.0000       2.669500        72.6408 
 107   0.0000       2.682643        72.9984 
 108   0.0000       2.698281        73.4240 
 109   0.0000       2.734639        74.4133 
 110   0.0000       2.752601        74.9021 
 111   0.0000       2.791587        75.9630 
 112   0.0000       2.806254        76.3621 
 113   0.0000       2.849305        77.5335 
 114   0.0000       2.860747        77.8449 
 115   0.0000       2.885228        78.5110 
 116   0.0000       2.929223        79.7082 
 117   0.0000       3.022895        82.2572 
 118   0.0000       3.062233        83.3276 
 119   0.0000       3.259758        88.7025 
 120   0.0000       3.267905        88.9242 
 121   0.0000       3.329831        90.6093 
 122   0.0000       3.434107        93.4468 
 123   0.0000       3.465855        94.3107 
 124   0.0000       3.546676        96.5100 
 125   0.0000       3.656826        99.5073 
 126   0.0000       3.700872       100.7058 
 127   0.0000       3.751658       102.0878 
 128   0.0000       3.852553       104.8333 
 129   0.0000       4.146814       112.8406 
 130   0.0000       4.462155       121.4214 
 131   0.0000       4.529632       123.2576 
 132   0.0000       4.682832       127.4263 
 133   0.0000       5.199273       141.4794 
 134   0.0000      10.407050       283.1902 
 135   0.0000      10.532512       286.6042 
 136   0.0000      24.637883       670.4309 
 137   0.0000      24.936041       678.5442 
 138   0.0000      25.312620       688.7914 
 139   0.0000      26.449203       719.7194 
 140   0.0000      26.496809       721.0148 
 141   0.0000      26.536903       722.1058 
 142   0.0000      26.609556       724.0828 
 143   0.0000      26.783295       728.8105 
 144   0.0000      26.853029       730.7081 
 145   0.0000      36.974711      1006.1330 
 146   0.0000     219.221078      5965.3088 
 147   0.0000     219.379114      5969.6092 

                    ********************************
                    * MULLIKEN POPULATION ANALYSIS *
                    ********************************

-----------------------
MULLIKEN ATOMIC CHARGES
-----------------------
   0 C :   -0.046645
   1 C :   -0.234076
   2 Cl:   -0.831298
   3 Cl:   -0.647681
   4 H :    0.333361
   5 H :    0.260502
   6 H :    0.222685
   7 C :   -0.615793
   8 H :    0.254880
   9 H :    0.216440
  10 H :    0.225609
  11 N :   -0.845205
  12 H :    0.335277
  13 H :    0.371945
Sum of atomic charges:   -1.0000000

--------------------------------
MULLIKEN REDUCED ORBITAL CHARGES
--------------------------------
  0 C s       :     3.316544  s :     3.316544
      pz      :     0.942019  p :     2.646283
      px      :     0.662342
      py      :     1.041922
      dz2     :     0.018903  d :     0.083818
      dxz     :     0.018249
      dyz     :     0.026004
      dx2y2   :     0.014775
      dxy     :     0.005887
  1 C s       :     3.220538  s :     3.220538
      pz      :     0.845328  p :     2.918162
      px      :     1.103674
      py      :     0.969159
      dz2     :     0.026803  d :     0.095376
      dxz     :     0.011275
      dyz     :     0.030774
      dx2y2   :     0.018460
      dxy     :     0.008064
  2 Cls       :     5.987117  s :     5.987117
      pz      :     3.975617  p :    11.842998
      px      :     3.878482
      py      :     3.988898
      dz2     :     0.000132  d :     0.001184
      dxz     :     0.000357
      dyz     :     0.000040
      dx2y2   :     0.000486
      dxy     :     0.000170
  3 Cls       :     5.981195  s :     5.981195
      pz      :     3.976054  p :    11.658204
      px      :     3.705881
      py      :     3.976269
      dz2     :     0.001403  d :     0.008282
      dxz     :     0.001313
      dyz     :     0.000090
      dx2y2   :     0.004191
      dxy     :     0.001284
  4 H s       :     0.666639  s :     0.666639
  5 H s       :     0.739498  s :     0.739498
  6 H s       :     0.777315  s :     0.777315
  7 C s       :     3.343683  s :     3.343683
      pz      :     1.116580  p :     3.203326
      px      :     1.089069
      py      :     0.997677
      dz2     :     0.016071  d :     0.068784
      dxz     :     0.008648
      dyz     :     0.016128
      dx2y2   :     0.022100
      dxy     :     0.005837
  8 H s       :     0.745120  s :     0.745120
  9 H s       :     0.783560  s :     0.783560
 10 H s       :     0.774391  s :     0.774391
 11 N s       :     3.686882  s :     3.686882
      pz      :     1.704445  p :     4.121855
      px      :     1.249460
      py      :     1.167949
      dz2     :     0.004046  d :     0.036468
      dxz     :     0.008089
      dyz     :     0.007261
      dx2y2   :     0.002657
      dxy     :     0.014415
 12 H s       :     0.664723  s :     0.664723
 13 H s       :     0.628055  s :     0.628055


                     *******************************
                     * LOEWDIN POPULATION ANALYSIS *
                     *******************************

----------------------
LOEWDIN ATOMIC CHARGES
----------------------
   0 C :    0.054547
   1 C :   -0.242027
   2 Cl:   -0.769402
   3 Cl:   -0.545063
   4 H :    0.186937
   5 H :    0.123475
   6 H :    0.099181
   7 C :   -0.275134
   8 H :    0.122478
   9 H :    0.109248
  10 H :    0.115643
  11 N :   -0.373550
  12 H :    0.191122
  13 H :    0.202545

-------------------------------
LOEWDIN REDUCED ORBITAL CHARGES
-------------------------------
  0 C s       :     2.890526  s :     2.890526
      pz      :     1.114278  p :     2.898363
      px      :     0.687486
      py      :     1.096599
      dz2     :     0.038995  d :     0.156564
      dxz     :     0.034199
      dyz     :     0.049323
      dx2y2   :     0.022939
      dxy     :     0.011108
  1 C s       :     2.844808  s :     2.844808
      pz      :     1.072566  p :     3.205780
      px      :     1.111730
      py      :     1.021484
      dz2     :     0.059104  d :     0.191439
      dxz     :     0.019220
      dyz     :     0.061077
      dx2y2   :     0.034454
      dxy     :     0.017584
  2 Cls       :     5.948103  s :     5.948103
      pz      :     3.967887  p :    11.819951
      px      :     3.868814
      py      :     3.983249
      dz2     :     0.000125  d :     0.001348
      dxz     :     0.000465
      dyz     :     0.000048
      dx2y2   :     0.000539
      dxy     :     0.000172
  3 Cls       :     5.863542  s :     5.863542
      pz      :     3.977444  p :    11.672332
      px      :     3.717959
      py      :     3.976928
      dz2     :     0.001553  d :     0.009188
      dxz     :     0.001441
      dyz     :     0.000096
      dx2y2   :     0.004672
      dxy     :     0.001427
  4 H s       :     0.813063  s :     0.813063
  5 H s       :     0.876525  s :     0.876525
  6 H s       :     0.900819  s :     0.900819
  7 C s       :     2.882594  s :     2.882594
      pz      :     1.106788  p :     3.285203
      px      :     1.099014
      py      :     1.079400
      dz2     :     0.023821  d :     0.107337
      dxz     :     0.011843
      dyz     :     0.027256
      dx2y2   :     0.034116
      dxy     :     0.010302
  8 H s       :     0.877522  s :     0.877522
  9 H s       :     0.890752  s :     0.890752
 10 H s       :     0.884357  s :     0.884357
 11 N s       :     3.192236  s :     3.192236
      pz      :     1.651570  p :     4.129463
      px      :     1.260499
      py      :     1.217394
      dz2     :     0.004838  d :     0.051851
      dxz     :     0.009680
      dyz     :     0.011216
      dx2y2   :     0.005792
      dxy     :     0.020326
 12 H s       :     0.808878  s :     0.808878
 13 H s       :     0.797455  s :     0.797455


                      *****************************
                      * MAYER POPULATION ANALYSIS *
                      *****************************

  NA   - Mulliken gross atomic population
  ZA   - Total nuclear charge
  QA   - Mulliken gross atomic charge
  VA   - Mayer's total valence
  BVA  - Mayer's bonded valence
  FA   - Mayer's free valence

  ATOM       NA         ZA         QA         VA         BVA        FA
  0 C      6.0466     6.0000    -0.0466     3.5980     3.5980    -0.0000
  1 C      6.2341     6.0000    -0.2341     3.4999     3.4999    -0.0000
  2 Cl    17.8313    17.0000    -0.8313     0.2384     0.2384    -0.0000
  3 Cl    17.6477    17.0000    -0.6477     0.4924     0.4924     0.0000
  4 H      0.6666     1.0000     0.3334     0.8350     0.8350    -0.0000
  5 H      0.7395     1.0000     0.2605     0.8968     0.8968     0.0000
  6 H      0.7773     1.0000     0.2227     0.9244     0.9244    -0.0000
  7 C      6.6158     6.0000    -0.6158     3.6735     3.6735    -0.0000
  8 H      0.7451     1.0000     0.2549     0.9006     0.9006    -0.0000
  9 H      0.7836     1.0000     0.2164     0.9164     0.9164     0.0000
 10 H      0.7744     1.0000     0.2256     0.9040     0.9040    -0.0000
 11 N      7.8452     7.0000    -0.8452     2.5896     2.5896    -0.0000
 12 H      0.6647     1.0000     0.3353     0.8528     0.8528    -0.0000
 13 H      0.6281     1.0000     0.3719     0.8350     0.8350    -0.0000

  Mayer bond orders larger than 0.1
B(  0-C ,  1-C ) :   1.4213 B(  0-C ,  2-Cl) :   0.2482 B(  0-C ,  5-H ) :   0.9232 
B(  0-C ,  7-C ) :   0.9541 B(  1-C ,  4-H ) :   0.3487 B(  1-C ,  6-H ) :   0.9461 
B(  1-C , 11-N ) :   0.9065 B(  3-Cl,  4-H ) :   0.4382 B(  7-C ,  8-H ) :   0.9284 
B(  7-C ,  9-H ) :   0.9467 B(  7-C , 10-H ) :   0.9190 B( 11-N , 12-H ) :   0.8526 
B( 11-N , 13-H ) :   0.8332 

-------
TIMINGS
-------

Total SCF time: 0 days 0 hours 0 min 51 sec 

Total time                  ....      51.722 sec
Sum of individual times     ....      51.686 sec  ( 99.9%)

Fock matrix formation       ....      50.613 sec  ( 97.9%)
Diagonalization             ....       0.051 sec  (  0.1%)
Density matrix formation    ....       0.005 sec  (  0.0%)
Population analysis         ....       0.007 sec  (  0.0%)
Initial guess               ....       0.575 sec  (  1.1%)
Orbital Transformation      ....       0.000 sec  (  0.0%)
Orbital Orthonormalization  ....       0.000 sec  (  0.0%)
DIIS solution               ....       0.012 sec  (  0.0%)
SOSCF solution              ....       0.055 sec  (  0.1%)

------------------------------------------------------------------------------
                                ORCA  MP2 
------------------------------------------------------------------------------

MP2 will be done in the AO integral direct mode
The Q1-step will be done using symmetric double matrices
Dimension of the basis                    ...  148
Memory devoted for MP2                    ... 10000 MB   
Memory needed for all in one shot         ...  424 MB
Number of MOs that can be treated together...  802      
MP2 density construction                  ... relaxed
The MP2 gradient is requested => amplitudes will be stored on disk
Total number of MOs              ...   34
Number of MOs treated per batch  ...   34 
Number of batches necessary      ...    1 
OPERATORS   0/  0 PASS   0
-----------------------------------------------
 MP2 CORRELATION ENERGY   :     -1.052484022 Eh
-----------------------------------------------


---------------------
MP2 DENSITY FORMATION
---------------------

Completing the external part of the density      ... done
Storing the unrelaxed density                    ... done

Calculating G(D)                                 ... done
Completing the Lagrangian                        ... done
Solving the Z-vector equations                   ... 

------------------------------------------------------------------------------
                           ORCA CP-SCF CALCULATION
------------------------------------------------------------------------------

Input orbitals are from        ... run.gbw
Input Perturbation             ... run.pin.tmp
Wavefunction output            ... run.pout.tmp
Perturbation mode              ... Real perturbation
Solver                         ... POPLE
Max. number of iterations      ... 128
Convergence tolerance          ... 1.000e-08
Integral handling              ... Direct
Number of perturbations        ... 1
Number of operators            ... 1
Orbital ranges used for CP-SCF:
 Operator 0:  Orbitals   0... 33  to  34...147
Variables per vector in CP-SCF ... 3876
Number of vectors sought       ... 1
     CP-SCF ITERATION   0: 
     CP-SCF ITERATION   1:      0.002665393204
     CP-SCF ITERATION   2:      0.000291342740
     CP-SCF ITERATION   3:      0.000050050919
     CP-SCF ITERATION   4:      0.000004782679
     CP-SCF ITERATION   5:      0.000000621919
     CP-SCF ITERATION   6:      0.000000041943
     CP-SCF ITERATION   7:      0.000000003123
                                                 ... done
Finalizing the relaxed density                   ... done
Transforming P to the AO basis                   ... done
Storing the relaxed density                      ... done

------------------------------------
ENERGY WEIGHTED DENSITY FINALIZATION
------------------------------------

Gathering the parts of the W-matrix              ...                                                      done
Forming the Z-density                            ... done
Transforming Z to the AO basis                   ... done
Calculating G(Z)                                 ... done
Finalizing the W-matrix                          ...                                                      done
Transforming W to the AO basis and storing       ... done

                *********************************************
                * UNRELAXED MP2 DENSITY POPULATION ANALYSIS *
                *********************************************

------------------------------------------------------------------------------
                           ORCA POPULATION ANALYSIS
------------------------------------------------------------------------------
Input electron density              ... run.pmp2ur
BaseName (.gbw .S,...)              ... run

                    ********************************
                    * MULLIKEN POPULATION ANALYSIS *
                    ********************************

-----------------------
MULLIKEN ATOMIC CHARGES
-----------------------
   0 C :   -0.067872
   1 C :   -0.233347
   2 Cl:   -0.822392
   3 Cl:   -0.639724
   4 H :    0.326941
   5 H :    0.262409
   6 H :    0.225095
   7 C :   -0.621633
   8 H :    0.256734
   9 H :    0.218939
  10 H :    0.227525
  11 N :   -0.837750
  12 H :    0.334600
  13 H :    0.370473
Sum of atomic charges:   -1.0000000

--------------------------------
MULLIKEN REDUCED ORBITAL CHARGES
--------------------------------
  0 C s       :     3.313035  s :     3.313035
      pz      :     0.939130  p :     2.653777
      px      :     0.676344
      py      :     1.038303
      dz2     :     0.022252  d :     0.101060
      dxz     :     0.021353
      dyz     :     0.030129
      dx2y2   :     0.017865
      dxy     :     0.009460
  1 C s       :     3.217459  s :     3.217459
      pz      :     0.843334  p :     2.899428
      px      :     1.089157
      py      :     0.966936
      dz2     :     0.030327  d :     0.116460
      dxz     :     0.016206
      dyz     :     0.034681
      dx2y2   :     0.022836
      dxy     :     0.012409
  2 Cls       :     5.980009  s :     5.980009
      pz      :     3.959193  p :    11.791614
      px      :     3.859403
      py      :     3.973019
      dz2     :     0.009998  d :     0.050769
      dxz     :     0.010369
      dyz     :     0.009812
      dx2y2   :     0.010443
      dxy     :     0.010147
  3 Cls       :     5.973523  s :     5.973523
      pz      :     3.959716  p :    11.608277
      px      :     3.688551
      py      :     3.960010
      dz2     :     0.011310  d :     0.057924
      dxz     :     0.011264
      dyz     :     0.009932
      dx2y2   :     0.014190
      dxy     :     0.011228
  4 H s       :     0.673059  s :     0.673059
  5 H s       :     0.737591  s :     0.737591
  6 H s       :     0.774905  s :     0.774905
  7 C s       :     3.340184  s :     3.340184
      pz      :     1.112550  p :     3.192377
      px      :     1.085473
      py      :     0.994354
      dz2     :     0.020172  d :     0.089073
      dxz     :     0.012962
      dyz     :     0.019851
      dx2y2   :     0.025824
      dxy     :     0.010262
  8 H s       :     0.743266  s :     0.743266
  9 H s       :     0.781061  s :     0.781061
 10 H s       :     0.772475  s :     0.772475
 11 N s       :     3.682336  s :     3.682336
      pz      :     1.692462  p :     4.099134
      px      :     1.244096
      py      :     1.162576
      dz2     :     0.008353  d :     0.056280
      dxz     :     0.012139
      dyz     :     0.011209
      dx2y2   :     0.006610
      dxy     :     0.017969
 12 H s       :     0.665400  s :     0.665400
 13 H s       :     0.629527  s :     0.629527


                     *******************************
                     * LOEWDIN POPULATION ANALYSIS *
                     *******************************

----------------------
LOEWDIN ATOMIC CHARGES
----------------------
   0 C :    0.033807
   1 C :   -0.244947
   2 Cl:   -0.760653
   3 Cl:   -0.536975
   4 H :    0.182754
   5 H :    0.127040
   6 H :    0.103313
   7 C :   -0.286395
   8 H :    0.125928
   9 H :    0.113083
  10 H :    0.119048
  11 N :   -0.371778
  12 H :    0.192439
  13 H :    0.203336

-------------------------------
LOEWDIN REDUCED ORBITAL CHARGES
-------------------------------
  0 C s       :     2.889331  s :     2.889331
      pz      :     1.107641  p :     2.899732
      px      :     0.700677
      py      :     1.091415
      dz2     :     0.044133  d :     0.177130
      dxz     :     0.037256
      dyz     :     0.053926
      dx2y2   :     0.026761
      dxy     :     0.015055
  1 C s       :     2.845496  s :     2.845496
      pz      :     1.066308  p :     3.183425
      px      :     1.098703
      py      :     1.018414
      dz2     :     0.064199  d :     0.216026
      dxz     :     0.024733
      dyz     :     0.065174
      dx2y2   :     0.039417
      dxy     :     0.022503
  2 Cls       :     5.940823  s :     5.940823
      pz      :     3.951300  p :    11.768158
      px      :     3.849582
      py      :     3.967276
      dz2     :     0.010088  d :     0.051672
      dxz     :     0.010675
      dyz     :     0.009870
      dx2y2   :     0.010778
      dxy     :     0.010261
  3 Cls       :     5.856177  s :     5.856177
      pz      :     3.960996  p :    11.621260
      px      :     3.699689
      py      :     3.960575
      dz2     :     0.011566  d :     0.059538
      dxz     :     0.011528
      dyz     :     0.009956
      dx2y2   :     0.014962
      dxy     :     0.011527
  4 H s       :     0.817246  s :     0.817246
  5 H s       :     0.872960  s :     0.872960
  6 H s       :     0.896687  s :     0.896687
  7 C s       :     2.883352  s :     2.883352
      pz      :     1.102570  p :     3.272361
      px      :     1.095322
      py      :     1.074469
      dz2     :     0.028369  d :     0.130681
      dxz     :     0.016705
      dyz     :     0.031856
      dx2y2   :     0.038568
      dxy     :     0.015183
  8 H s       :     0.874072  s :     0.874072
  9 H s       :     0.886917  s :     0.886917
 10 H s       :     0.880952  s :     0.880952
 11 N s       :     3.191165  s :     3.191165
      pz      :     1.640240  p :     4.106884
      px      :     1.255279
      py      :     1.211365
      dz2     :     0.009408  d :     0.073729
      dxz     :     0.014068
      dyz     :     0.015800
      dx2y2   :     0.010038
      dxy     :     0.024415
 12 H s       :     0.807561  s :     0.807561
 13 H s       :     0.796664  s :     0.796664


                      *****************************
                      * MAYER POPULATION ANALYSIS *
                      *****************************

  NA   - Mulliken gross atomic population
  ZA   - Total nuclear charge
  QA   - Mulliken gross atomic charge
  VA   - Mayer's total valence
  BVA  - Mayer's bonded valence
  FA   - Mayer's free valence

  ATOM       NA         ZA         QA         VA         BVA        FA
  0 C      6.0679     6.0000    -0.0679     3.7087     3.3773     0.3314
  1 C      6.2333     6.0000    -0.2333     3.6199     3.2805     0.3394
  2 Cl    17.8224    17.0000    -0.8224     0.6369     0.2222     0.4147
  3 Cl    17.6397    17.0000    -0.6397     0.8632     0.4585     0.4047
  4 H      0.6731     1.0000     0.3269     0.8390     0.7823     0.0568
  5 H      0.7376     1.0000     0.2624     0.8981     0.8604     0.0377
  6 H      0.7749     1.0000     0.2251     0.9252     0.8853     0.0400
  7 C      6.6216     6.0000    -0.6216     3.7893     3.5144     0.2748
  8 H      0.7433     1.0000     0.2567     0.9019     0.8649     0.0371
  9 H      0.7811     1.0000     0.2189     0.9177     0.8802     0.0375
 10 H      0.7725     1.0000     0.2275     0.9059     0.8659     0.0399
 11 N      7.8377     7.0000    -0.8377     2.7965     2.4604     0.3362
 12 H      0.6654     1.0000     0.3346     0.8554     0.8151     0.0403
 13 H      0.6295     1.0000     0.3705     0.8382     0.7987     0.0395

  Mayer bond orders larger than 0.1
B(  0-C ,  1-C ) :   1.3234 B(  0-C ,  2-Cl) :   0.2352 B(  0-C ,  5-H ) :   0.8875 
B(  0-C ,  7-C ) :   0.9014 B(  1-C ,  4-H ) :   0.3256 B(  1-C ,  6-H ) :   0.9088 
B(  1-C , 11-N ) :   0.8517 B(  3-Cl,  4-H ) :   0.4185 B(  7-C ,  8-H ) :   0.8936 
B(  7-C ,  9-H ) :   0.9109 B(  7-C , 10-H ) :   0.8829 B( 11-N , 12-H ) :   0.8164 
B( 11-N , 13-H ) :   0.7983 


                *******************************************
                * RELAXED MP2 DENSITY POPULATION ANALYSIS *
                *******************************************

------------------------------------------------------------------------------
                           ORCA POPULATION ANALYSIS
------------------------------------------------------------------------------
Input electron density              ... run.pmp2re
BaseName (.gbw .S,...)              ... run

                    ********************************
                    * MULLIKEN POPULATION ANALYSIS *
                    ********************************

-----------------------
MULLIKEN ATOMIC CHARGES
-----------------------
   0 C :   -0.119326
   1 C :   -0.221348
   2 Cl:   -0.775462
   3 Cl:   -0.579521
   4 H :    0.290154
   5 H :    0.241011
   6 H :    0.224190
   7 C :   -0.660843
   8 H :    0.257310
   9 H :    0.220786
  10 H :    0.225642
  11 N :   -0.792133
  12 H :    0.327380
  13 H :    0.362162
Sum of atomic charges:   -1.0000000

--------------------------------
MULLIKEN REDUCED ORBITAL CHARGES
--------------------------------
  0 C s       :     3.294853  s :     3.294853
      pz      :     0.918758  p :     2.734229
      px      :     0.803491
      py      :     1.011980
      dz2     :     0.020250  d :     0.090245
      dxz     :     0.018058
      dyz     :     0.027017
      dx2y2   :     0.015782
      dxy     :     0.009138
  1 C s       :     3.214539  s :     3.214539
      pz      :     0.886425  p :     2.898781
      px      :     1.029968
      py      :     0.982388
      dz2     :     0.026523  d :     0.108029
      dxz     :     0.016289
      dyz     :     0.033005
      dx2y2   :     0.020482
      dxy     :     0.011728
  2 Cls       :     5.979722  s :     5.979722
      pz      :     3.949491  p :    11.744884
      px      :     3.826834
      py      :     3.968559
      dz2     :     0.010001  d :     0.050856
      dxz     :     0.010407
      dyz     :     0.009818
      dx2y2   :     0.010474
      dxy     :     0.010156
  3 Cls       :     5.968326  s :     5.968326
      pz      :     3.955744  p :    11.552996
      px      :     3.642914
      py      :     3.954339
      dz2     :     0.011370  d :     0.058198
      dxz     :     0.011272
      dyz     :     0.009929
      dx2y2   :     0.014351
      dxy     :     0.011277
  4 H s       :     0.709846  s :     0.709846
  5 H s       :     0.758989  s :     0.758989
  6 H s       :     0.775810  s :     0.775810
  7 C s       :     3.328692  s :     3.328692
      pz      :     1.135262  p :     3.253808
      px      :     1.094629
      py      :     1.023917
      dz2     :     0.018032  d :     0.078343
      dxz     :     0.011584
      dyz     :     0.016648
      dx2y2   :     0.022425
      dxy     :     0.009655
  8 H s       :     0.742690  s :     0.742690
  9 H s       :     0.779214  s :     0.779214
 10 H s       :     0.774358  s :     0.774358
 11 N s       :     3.654802  s :     3.654802
      pz      :     1.682588  p :     4.085148
      px      :     1.242756
      py      :     1.159804
      dz2     :     0.008334  d :     0.052183
      dxz     :     0.011326
      dyz     :     0.010413
      dx2y2   :     0.006171
      dxy     :     0.015938
 12 H s       :     0.672620  s :     0.672620
 13 H s       :     0.637838  s :     0.637838


                     *******************************
                     * LOEWDIN POPULATION ANALYSIS *
                     *******************************

----------------------
LOEWDIN ATOMIC CHARGES
----------------------
   0 C :   -0.043572
   1 C :   -0.230306
   2 Cl:   -0.725051
   3 Cl:   -0.488687
   4 H :    0.171706
   5 H :    0.121024
   6 H :    0.109312
   7 C :   -0.319368
   8 H :    0.130810
   9 H :    0.117872
  10 H :    0.122297
  11 N :   -0.368107
  12 H :    0.195713
  13 H :    0.206357

-------------------------------
LOEWDIN REDUCED ORBITAL CHARGES
-------------------------------
  0 C s       :     2.884037  s :     2.884037
      pz      :     1.095475  p :     2.990608
      px      :     0.813338
      py      :     1.081795
      dz2     :     0.044031  d :     0.168927
      dxz     :     0.032807
      dyz     :     0.051940
      dx2y2   :     0.025037
      dxy     :     0.015113
  1 C s       :     2.852377  s :     2.852377
      pz      :     1.086770  p :     3.167920
      px      :     1.056918
      py      :     1.024232
      dz2     :     0.059675  d :     0.210008
      dxz     :     0.026896
      dyz     :     0.064077
      dx2y2   :     0.037453
      dxy     :     0.021907
  2 Cls       :     5.942369  s :     5.942369
      pz      :     3.944352  p :    11.730845
      px      :     3.821750
      py      :     3.964743
      dz2     :     0.010100  d :     0.051837
      dxz     :     0.010732
      dyz     :     0.009877
      dx2y2   :     0.010854
      dxy     :     0.010275
  3 Cls       :     5.856981  s :     5.856981
      pz      :     3.958278  p :    11.571863
      px      :     3.657070
      py      :     3.956515
      dz2     :     0.011627  d :     0.059843
      dxz     :     0.011545
      dyz     :     0.009954
      dx2y2   :     0.015128
      dxy     :     0.011589
  4 H s       :     0.828294  s :     0.828294
  5 H s       :     0.878976  s :     0.878976
  6 H s       :     0.890688  s :     0.890688
  7 C s       :     2.886369  s :     2.886369
      pz      :     1.116114  p :     3.312387
      px      :     1.104489
      py      :     1.091785
      dz2     :     0.026458  d :     0.120612
      dxz     :     0.015561
      dyz     :     0.028279
      dx2y2   :     0.035312
      dxy     :     0.015002
  8 H s       :     0.869190  s :     0.869190
  9 H s       :     0.882128  s :     0.882128
 10 H s       :     0.877703  s :     0.877703
 11 N s       :     3.190841  s :     3.190841
      pz      :     1.633716  p :     4.107328
      px      :     1.258847
      py      :     1.214765
      dz2     :     0.009445  d :     0.069937
      dxz     :     0.013311
      dyz     :     0.015121
      dx2y2   :     0.009553
      dxy     :     0.022508
 12 H s       :     0.804287  s :     0.804287
 13 H s       :     0.793643  s :     0.793643


                      *****************************
                      * MAYER POPULATION ANALYSIS *
                      *****************************

  NA   - Mulliken gross atomic population
  ZA   - Total nuclear charge
  QA   - Mulliken gross atomic charge
  VA   - Mayer's total valence
  BVA  - Mayer's bonded valence
  FA   - Mayer's free valence

  ATOM       NA         ZA         QA         VA         BVA        FA
  0 C      6.1193     6.0000    -0.1193     3.8255     3.5254     0.3001
  1 C      6.2213     6.0000    -0.2213     3.7339     3.4124     0.3215
  2 Cl    17.7755    17.0000    -0.7755     0.7149     0.3093     0.4057
  3 Cl    17.5795    17.0000    -0.5795     0.9458     0.5506     0.3952
  4 H      0.7098     1.0000     0.2902     0.8627     0.8078     0.0550
  5 H      0.7590     1.0000     0.2410     0.9116     0.8754     0.0362
  6 H      0.7758     1.0000     0.2242     0.9247     0.8856     0.0390
  7 C      6.6608     6.0000    -0.6608     3.8119     3.5410     0.2709
  8 H      0.7427     1.0000     0.2573     0.9030     0.8667     0.0363
  9 H      0.7792     1.0000     0.2208     0.9154     0.8786     0.0368
 10 H      0.7744     1.0000     0.2256     0.9054     0.8666     0.0388
 11 N      7.7921     7.0000    -0.7921     2.8690     2.5381     0.3309
 12 H      0.6726     1.0000     0.3274     0.8604     0.8207     0.0397
 13 H      0.6378     1.0000     0.3622     0.8494     0.8108     0.0386

  Mayer bond orders larger than 0.1
B(  0-C ,  1-C ) :   1.3859 B(  0-C ,  2-Cl) :   0.2527 B(  0-C ,  5-H ) :   0.8910 
B(  0-C ,  7-C ) :   0.9206 B(  1-C ,  4-H ) :   0.3016 B(  1-C ,  6-H ) :   0.8969 
B(  1-C , 11-N ) :   0.9051 B(  3-Cl,  4-H ) :   0.4609 B(  7-C ,  8-H ) :   0.8882 
B(  7-C ,  9-H ) :   0.9058 B(  7-C , 10-H ) :   0.8780 B( 11-N , 12-H ) :   0.8147 
B( 11-N , 13-H ) :   0.7971 


----------------------------------
MP2 DERIVATIVE INTEGRAL GENERATION
----------------------------------


Input Wavefunction Amplitudes       ... run.mp2tsaa.tmp.proc0
Input Correlated Electron Density   ... run.pmp2re
Input Energy Weighted Density       ... run.wmp2.tmp
Input SCF Electron Density          ... run.scfp.tmp

One-Electron Terms    ...
                        ... One-Electron Terms done
Prescreening matrices              ... done

Batch handling in the gradient evaluation:
Memory available                      ... 10000.0 MB
Memory per occupied orbital in Q2     ...    5.7 MB
Memory per occupied orbital in Q3     ...    0.0 MB
Total memory requirement per |i>      ...    5.7 MB
Max. Number of orbitals possible      ...   1751
Number of orbitals treated per batch  ...     34
Number of batches to be done          ...      1
Batch   0: i=    0 ...    33

---------------------------------------
MP2 TOTAL ENERGY:    -1092.818009893 Eh
---------------------------------------

-----------------------------------
NORM OF THE MP2 GRADIENT:  0.000339
-----------------------------------

-------------------------   --------------------
FINAL SINGLE POINT ENERGY     -1092.818009892853
-------------------------   --------------------


----------------------------------------------------------------------------
                           ORCA NUMERICAL FREQUENCIES
----------------------------------------------------------------------------

Number of atoms                ... 14
Central differences            ... used
Number of displacements        ... 84
Numerical increment            ...  0.005 bohr
IR-spectrum generation         ... on
Raman-spectrum generation      ... off
Surface Crossing Hessian       ... off

The output will be reduced. Please look at the following files:
SCF program output             ... >run.lastscf
Integral program output        ... >run.lastint
Gradient program output        ... >run.lastgrad
Dipole moment program output   ... >run.lastmom


         <<<Energy and Gradient at the input geometry>>>
             <<<Displacing   1/coordinate 1 (+)>>>
             <<<Displacing   1/coordinate 1 (-)>>>
             <<<Displacing   1/coordinate 2 (+)>>>
             <<<Displacing   1/coordinate 2 (-)>>>
             <<<Displacing   1/coordinate 3 (+)>>>
             <<<Displacing   1/coordinate 3 (-)>>>
             <<<Displacing   2/coordinate 1 (+)>>>
             <<<Displacing   2/coordinate 1 (-)>>>
             <<<Displacing   2/coordinate 2 (+)>>>
             <<<Displacing   2/coordinate 2 (-)>>>
             <<<Displacing   2/coordinate 3 (+)>>>
             <<<Displacing   2/coordinate 3 (-)>>>
             <<<Displacing   3/coordinate 1 (+)>>>
             <<<Displacing   3/coordinate 1 (-)>>>
             <<<Displacing   3/coordinate 2 (+)>>>
             <<<Displacing   3/coordinate 2 (-)>>>
             <<<Displacing   3/coordinate 3 (+)>>>
             <<<Displacing   3/coordinate 3 (-)>>>
             <<<Displacing   4/coordinate 1 (+)>>>
             <<<Displacing   4/coordinate 1 (-)>>>
             <<<Displacing   4/coordinate 2 (+)>>>
             <<<Displacing   4/coordinate 2 (-)>>>
             <<<Displacing   4/coordinate 3 (+)>>>
             <<<Displacing   4/coordinate 3 (-)>>>
             <<<Displacing   5/coordinate 1 (+)>>>
             <<<Displacing   5/coordinate 1 (-)>>>
             <<<Displacing   5/coordinate 2 (+)>>>
             <<<Displacing   5/coordinate 2 (-)>>>
             <<<Displacing   5/coordinate 3 (+)>>>
             <<<Displacing   5/coordinate 3 (-)>>>
             <<<Displacing   6/coordinate 1 (+)>>>
             <<<Displacing   6/coordinate 1 (-)>>>
             <<<Displacing   6/coordinate 2 (+)>>>
             <<<Displacing   6/coordinate 2 (-)>>>
             <<<Displacing   6/coordinate 3 (+)>>>
             <<<Displacing   6/coordinate 3 (-)>>>
             <<<Displacing   7/coordinate 1 (+)>>>
             <<<Displacing   7/coordinate 1 (-)>>>
             <<<Displacing   7/coordinate 2 (+)>>>
             <<<Displacing   7/coordinate 2 (-)>>>
             <<<Displacing   7/coordinate 3 (+)>>>
             <<<Displacing   7/coordinate 3 (-)>>>
             <<<Displacing   8/coordinate 1 (+)>>>
             <<<Displacing   8/coordinate 1 (-)>>>
             <<<Displacing   8/coordinate 2 (+)>>>
             <<<Displacing   8/coordinate 2 (-)>>>
             <<<Displacing   8/coordinate 3 (+)>>>
             <<<Displacing   8/coordinate 3 (-)>>>
             <<<Displacing   9/coordinate 1 (+)>>>
             <<<Displacing   9/coordinate 1 (-)>>>
             <<<Displacing   9/coordinate 2 (+)>>>
             <<<Displacing   9/coordinate 2 (-)>>>
             <<<Displacing   9/coordinate 3 (+)>>>
             <<<Displacing   9/coordinate 3 (-)>>>
             <<<Displacing  10/coordinate 1 (+)>>>
             <<<Displacing  10/coordinate 1 (-)>>>
             <<<Displacing  10/coordinate 2 (+)>>>
             <<<Displacing  10/coordinate 2 (-)>>>
             <<<Displacing  10/coordinate 3 (+)>>>
             <<<Displacing  10/coordinate 3 (-)>>>
             <<<Displacing  11/coordinate 1 (+)>>>
