
                                 *****************
                                 * O   R   C   A *
                                 *****************

           --- An Ab Initio, DFT and Semiempirical electronic structure package ---

                  #######################################################
                  #                        -***-                        #
                  #  Department of molecular theory and spectroscopy    #
                  #              Directorship: Frank Neese              #
                  # Max Planck Institute for Chemical Energy Conversion #
                  #                  D-45470 Muelheim/Ruhr              #
                  #                       Germany                       #
                  #                                                     #
                  #                  All rights reserved                #
                  #                        -***-                        #
                  #######################################################


                         Program Version 4.0.1.2 - RELEASE -


 With contributions from (in alphabetic order):
   Daniel Aravena         : Magnetic Properties
   Michael Atanasov       : Ab Initio Ligand Field Theory
   Ute Becker             : Parallelization
   Martin Brehm           : Molecular dynamics
   Dmytro Bykov           : SCF Hessian
   Vijay G. Chilkuri      : MRCI spin determinant printing
   Dipayan Datta          : RHF DLPNO-CCSD density
   Achintya Kumar Dutta   : EOM-CC, STEOM-CC
   Dmitry Ganyushin       : Spin-Orbit,Spin-Spin,Magnetic field MRCI
   Yang Guo               : DLPNO-NEVPT2, CIM, IAO-localization
   Andreas Hansen         : Spin unrestricted coupled pair/coupled cluster methods
   Lee Huntington         : MR-EOM, pCC
   Robert Izsak           : Overlap fitted RIJCOSX, COSX-SCS-MP3, EOM
   Christian Kollmar      : KDIIS, OOCD, Brueckner-CCSD(T), CCSD density
   Simone Kossmann        : Meta GGA functionals, TD-DFT gradient, OOMP2, MP2 Hessian
   Martin Krupicka        : AUTO-CI
   Dagmar Lenk            : GEPOL surface
   Dimitrios Liakos       : Extrapolation schemes; parallel MDCI
   Dimitrios Manganas     : ROCIS; embedding schemes
   Dimitrios Pantazis     : SARC Basis sets
   Taras Petrenko         : DFT Hessian,TD-DFT gradient, ASA, ECA, R-Raman, ABS, FL, XAS/XES, NRVS
   Peter Pinski           : DLPNO-MP2
   Christoph Reimann      : Effective Core Potentials
   Marius Retegan         : Local ZFS, SOC
   Christoph Riplinger    : Optimizer, TS searches, QM/MM, DLPNO-CCSD(T), (RO)-DLPNO pert. Triples
   Tobias Risthaus        : Range-separated hybrids, TD-DFT gradient, RPA, STAB
   Michael Roemelt        : Restricted open shell CIS
   Masaaki Saitow         : Open-shell DLPNO
   Barbara Sandhoefer     : DKH picture change effects
   Kantharuban Sivalingam : CASSCF convergence, NEVPT2, FIC-MRCI
   Georgi Stoychev        : AutoAux
   Boris Wezisla          : Elementary symmetry handling
   Frank Wennmohs         : Technical directorship


 We gratefully acknowledge several colleagues who have allowed us to
 interface, adapt or use parts of their codes:
   Stefan Grimme, W. Hujo, H. Kruse,             : VdW corrections, initial TS optimization,
                  C. Bannwarth                     DFT functionals, gCP, sTDA/sTD-DF
   Ed Valeev                                     : LibInt (2-el integral package), F12 methods
   Garnet Chan, S. Sharma, J. Yang, R. Olivares  : DMRG
   Ulf Ekstrom                                   : XCFun DFT Library
   Mihaly Kallay                                 : mrcc  (arbitrary order and MRCC methods)
   Andreas Klamt, Michael Diedenhofen            : otool_cosmo (COSMO solvation model)
   Jiri Pittner, Ondrej Demel                    : Mk-CCSD
   Frank Weinhold                                : gennbo (NPA and NBO analysis)
   Christopher J. Cramer and Donald G. Truhlar   : smd solvation model


 Your calculation uses the libint2 library for the computation of 2-el integrals
 For citations please refer to: http://libint.valeyev.net

 This ORCA versions uses:
   CBLAS   interface :  Fast vector & matrix operations
   LAPACKE interface :  Fast linear algebra routines
   SCALAPACK package :  Parallel linear algebra routines




*****************************************
The coordinations will be read from file: inp.xyz
*****************************************


Your calculation utilizes the basis: 6-311G(d)
   H, Li - Ne  : R. Krishnan, J. S. Binkley, R. Seeger and J. A. Pople, J. Chem. Phys. 72, 650 (1980).
   Na - Ar     : A. D. McLean and G. S. Chandler J. Chem. Phys. 72, 5639, (1980).
   K  - Ca     : J.-P. Blaudeau, M. P. McGrath, L. A. Curtiss and L. Radom, J. Chem. Phys. 107, 5016 (1997).
   Ga - Kr     : L. A. Curtiss, M. P. McGrath, J.-P. Blandeau, N. E. Davis, R. C. Binning and L. Radom, J. Chem. Phys. 103, 6104 (1995).
   Pol./Diff.
   H, Li - Cl  : T. Clark, J. Chandrasekhar and P. v. R. Schleyer, J. Comp. Chem. 4, 294 (1983).
   H - Ne      : M. J. Frisch, J. A. Pople and J. S. Binkley, J. Chem. Phys. 80, 3265 (1984).

================================================================================
                                        WARNINGS
                       Please study these warnings very carefully!
================================================================================

Warning: TCutStore was < 0. Adjusted to Thresh (uncritical)

WARNING: TCut can not be >=Thresh
  ===> : TCut is set to 0.01*Thresh

WARNING: Geometry Optimization
  ===> : Switching off AutoStart
         For restart on a previous wavefunction, please use MOREAD

WARNING: Post HF methods need fully converged wavefunctions
  ===> : Setting SCFConvForced true
         You can overwrite this default with %scf ConvForced false 


INFO   : the flag for use of LIBINT has been found!

================================================================================
                                       INPUT FILE
================================================================================
NAME = run.inp
|  1> ! MP2 6-311G(d) OptTS NoFrozenCore ExtremeSCF
|  2> 
|  3> %pal nprocs 1
|  4> end
|  5> 
|  6> %mp2 MaxCore 5000
|  7> end
|  8> 
|  9> *xyzfile -1 1 inp.xyz 
| 10> 
| 11>                          ****END OF INPUT****
================================================================================

                       *****************************
                       * Geometry Optimization Run *
                       *****************************

Geometry optimization settings:
Update method            Update   .... Bofill
Choice of coordinates    CoordSys .... Redundant Internals
Initial Hessian          InHess   .... Almoef's Model

Convergence Tolerances:
Energy Change            TolE     ....  5.0000e-06 Eh
Max. Gradient            TolMAXG  ....  3.0000e-04 Eh/bohr
RMS Gradient             TolRMSG  ....  1.0000e-04 Eh/bohr
Max. Displacement        TolMAXD  ....  4.0000e-03 bohr
RMS Displacement         TolRMSD  ....  2.0000e-03 bohr

------------------------------------------------------------------------------
                        ORCA OPTIMIZATION COORDINATE SETUP
------------------------------------------------------------------------------

The optimization will be done in new redundant internal coordinates
Making redundant internal coordinates   ...  (new redundants) done
Following TS mode number                ...     0
Evaluating the initial hessian          ...  (Almloef) done
Evaluating the coordinates              ...  done
Calculating the B-matrix                .... done
Calculating the G-matrix                .... done
Diagonalizing the G-matrix              .... done
The first mode is                       ....   67
The number of degrees of freedom        ....   36

    -----------------------------------------------------------------
                    Redundant Internal Coordinates


    -----------------------------------------------------------------
         Definition                    Initial Value    Approx d2E/dq
    -----------------------------------------------------------------
      1. B(C   1,C   0)                  1.3796         0.649232   
      2. B(Cl  2,C   1)                  3.2307         0.001622   
      3. B(Cl  2,C   0)                  2.5579         0.019205   
      4. B(H   4,Cl  3)                  1.6133         0.118156   
      5. B(H   4,C   1)                  1.3684         0.129496   
      6. B(H   5,Cl  2)                  2.5870         0.003305   
      7. B(H   5,C   0)                  1.0834         0.368971   
      8. B(H   6,C   1)                  1.0933         0.355758   
      9. B(C   7,C   0)                  1.4911         0.430979   
     10. B(C   7,Cl  2)                  3.2306         0.001622   
     11. B(H   8,C   7)                  1.0903         0.359648   
     12. B(H   8,Cl  2)                  2.8267         0.001370   
     13. B(H   9,C   7)                  1.0934         0.355644   
     14. B(H  10,C   7)                  1.0953         0.353121   
     15. B(N  11,C   1)                  1.4357         0.473101   
     16. B(H  12,N  11)                  1.0123         0.429050   
     17. B(H  13,N  11)                  1.0149         0.424949   
     18. B(H  13,Cl  2)                  2.7516         0.001805   
     19. A(H   5,C   0,C   7)          117.6474         0.333399   
     20. A(C   1,C   0,Cl  2)          106.3868         0.256976   
     21. A(C   1,C   0,H   5)          116.6854         0.357148   
     22. A(Cl  2,C   0,C   7)          102.6511         0.242099   
     23. A(C   1,C   0,C   7)          121.7287         0.410132   
     24. A(Cl  2,C   0,H   5)           79.3504         0.216839   
     25. A(Cl  2,C   1,H   6)          109.6153         0.161467   
     26. A(Cl  2,C   1,H   4)          139.6126         0.146651   
     27. A(C   0,C   1,H   4)           93.1461         0.300569   
     28. A(C   0,C   1,Cl  2)           49.4289         0.185009   
     29. A(H   4,C   1,H   6)          100.0659         0.248692   
     30. A(Cl  2,C   1,N  11)           86.9844         0.177637   
     31. A(C   0,C   1,N  11)          120.8077         0.414283   
     32. A(H   4,C   1,N  11)          104.8917         0.284323   
     33. A(C   0,C   1,H   6)          116.3435         0.354944   
     34. A(H   6,C   1,N  11)          115.0556         0.334523   
     35. A(C   0,Cl  2,C   1)           24.1843         0.134772   
     36. A(C   0,Cl  2,C   7)           26.7657         0.134773   
     37. A(C   1,Cl  2,C   7)           45.6801         0.115162   
     38. A(C   1,H   4,Cl  3)          162.1817         0.223422   
     39. A(Cl  2,C   7,H   9)          121.3365         0.161464   
     40. A(Cl  2,C   7,H   8)           58.9325         0.161648   
     41. A(C   0,C   7,Cl  2)           50.5832         0.176508   
     42. A(H   9,C   7,H  10)          108.4822         0.289382   
     43. A(H   8,C   7,H  10)          108.2095         0.289890   
     44. A(C   0,C   7,H  10)          110.6123         0.330982   
     45. A(H   8,C   7,H   9)          109.0120         0.290214   
     46. A(C   0,C   7,H   9)          111.2706         0.331372   
     47. A(C   0,C   7,H   8)          109.1876         0.331987   
     48. A(Cl  2,C   7,H  10)          130.1364         0.161348   
     49. A(H  12,N  11,H  13)          109.5604         0.301972   
     50. A(C   1,N  11,H  13)          107.2266         0.341622   
     51. A(C   1,N  11,H  12)          111.2059         0.342172   
     52. D(Cl  2,C   1,C   0,C   7)    116.7580         0.036582   
     53. D(H   6,C   1,C   0,C   7)     22.7911         0.036582   
     54. D(N  11,C   1,C   0,Cl  2)     53.7574         0.036582   
     55. D(H   6,C   1,C   0,Cl  2)    -93.9669         0.036582   
     56. D(H   6,C   1,C   0,H   5)    179.9199         0.036582   
     57. D(N  11,C   1,C   0,H   5)    -32.3558         0.036582   
     58. D(H   4,C   1,C   0,Cl  2)    163.1745         0.036582   
     59. D(Cl  2,C   1,C   0,H   5)    -86.1132         0.036582   
     60. D(N  11,C   1,C   0,C   7)    170.5154         0.036582   
     61. D(H   4,C   1,C   0,H   5)     77.0612         0.036582   
     62. D(H   4,C   1,C   0,C   7)    -80.0676         0.036582   
     63. D(C   7,Cl  2,C   0,C   1)    128.8889         0.001511   
     64. D(C   1,Cl  2,C   0,H   5)    114.8986         0.001511   
     65. D(C   7,Cl  2,C   0,H   5)   -116.2125         0.001511   
     66. D(C   7,Cl  2,C   1,N  11)   -165.4153         0.001500   
     67. D(C   1,Cl  2,C   0,C   7)   -128.8889         0.001511   
     68. D(C   7,Cl  2,C   1,H   4)    -55.8278         0.001500   
     69. D(C   0,Cl  2,C   1,N  11)   -136.0783         0.001500   
     70. D(C   7,Cl  2,C   1,H   6)     79.0259         0.001500   
     71. D(C   0,Cl  2,C   1,H   6)    108.3629         0.001500   
     72. D(C   0,Cl  2,C   1,H   4)    -26.4908         0.001500   
     73. D(C   7,Cl  2,C   1,C   0)    -29.3370         0.001500   
     74. D(Cl  3,H   4,C   1,Cl  2)   -132.0724         0.013274   
     75. D(Cl  3,H   4,C   1,N  11)    -28.8585         0.013274   
     76. D(Cl  3,H   4,C   1,H   6)     90.6316         0.013274   
     77. D(Cl  3,H   4,C   1,C   0)   -151.9087         0.013274   
     78. D(H   9,C   7,C   0,C   1)     -4.8725         0.015598   
     79. D(H   8,C   7,C   0,Cl  2)     -6.6420         0.015598   
     80. D(H   8,C   7,C   0,H   5)     77.8359         0.015598   
     81. D(H   9,C   7,C   0,H   5)   -161.7920         0.015598   
     82. D(H   8,C   7,C   0,C   1)   -125.2446         0.015598   
     83. D(H  10,C   7,Cl  2,C   1)    110.9050         0.001500   
     84. D(H   9,C   7,Cl  2,C   1)    -66.3599         0.001500   
     85. D(H   9,C   7,Cl  2,C   0)    -92.8280         0.001500   
     86. D(H   8,C   7,Cl  2,C   1)   -160.8589         0.001500   
     87. D(H   8,C   7,Cl  2,C   0)    172.6730         0.001500   
     88. D(C   0,C   7,Cl  2,C   1)     26.4681         0.001500   
     89. D(Cl  2,C   7,C   0,H   5)     84.4778         0.015598   
     90. D(Cl  2,C   7,C   0,C   1)   -118.6027         0.015598   
     91. D(H  10,C   7,C   0,Cl  2)   -125.6145         0.015598   
     92. D(H  10,C   7,C   0,H   5)    -41.1366         0.015598   
     93. D(H  10,C   7,Cl  2,C   0)     84.4369         0.001500   
     94. D(H  10,C   7,C   0,C   1)    115.7828         0.015598   
     95. D(H   9,C   7,C   0,Cl  2)    113.7302         0.015598   
     96. D(H  13,N  11,C   1,Cl  2)      5.1224         0.020524   
     97. D(H  13,N  11,C   1,H   6)    115.3935         0.020524   
     98. D(H  13,N  11,C   1,H   4)   -135.7040         0.020524   
     99. D(H  13,N  11,C   1,C   0)    -32.7193         0.020524   
    100. D(H  12,N  11,C   1,Cl  2)    124.8769         0.020524   
    101. D(H  12,N  11,C   1,H   6)   -124.8520         0.020524   
    102. D(H  12,N  11,C   1,H   4)    -15.9495         0.020524   
    103. D(H  12,N  11,C   1,C   0)     87.0352         0.020524   
    -----------------------------------------------------------------

Number of atoms                         .... 14
Number of degrees of freedom            .... 103

         *************************************************************
         *                GEOMETRY OPTIMIZATION CYCLE   1            *
         *************************************************************
---------------------------------
CARTESIAN COORDINATES (ANGSTROEM)
---------------------------------
  C     -0.301826   -0.119361   -0.213355
  C     -0.248529   -0.097329    1.164996
  Cl     2.077012    0.337893   -1.034919
  Cl    -3.061526    0.434583    1.860055
  H     -1.604010    0.042202    1.290346
  H     -0.441227    0.833248   -0.710151
  H     -0.109071   -1.061818    1.660599
  C     -0.675234   -1.352392   -0.964055
  H      0.109040   -1.584215   -1.685177
  H     -0.802399   -2.203895   -0.290058
  H     -1.611013   -1.201177   -1.512866
  N      0.304390    1.029767    1.861551
  H     -0.397787    1.740844    2.023078
  H      1.044541    1.409050    1.279835

----------------------------
CARTESIAN COORDINATES (A.U.)
----------------------------
  NO LB      ZA    FRAG     MASS         X           Y           Z
   0 C     6.0000    0    12.011   -0.570369   -0.225559   -0.403182
   1 C     6.0000    0    12.011   -0.469651   -0.183925    2.201523
   2 Cl   17.0000    0    35.453    3.924984    0.638526   -1.955714
   3 Cl   17.0000    0    35.453   -5.785446    0.821243    3.514995
   4 H     1.0000    0     1.008   -3.031140    0.079750    2.438401
   5 H     1.0000    0     1.008   -0.833799    1.574610   -1.341990
   6 H     1.0000    0     1.008   -0.206114   -2.006545    3.138076
   7 C     6.0000    0    12.011   -1.276007   -2.555650   -1.821800
   8 H     1.0000    0     1.008    0.206056   -2.993732   -3.184523
   9 H     1.0000    0     1.008   -1.516315   -4.164757   -0.548130
  10 H     1.0000    0     1.008   -3.044374   -2.269896   -2.858902
  11 N     7.0000    0    14.007    0.575213    1.945977    3.517822
  12 H     1.0000    0     1.008   -0.751708    3.289718    3.823063
  13 H     1.0000    0     1.008    1.973897    2.662718    2.418538

--------------------------------
INTERNAL COORDINATES (ANGSTROEM)
--------------------------------
 C      0   0   0     0.000000000000     0.00000000     0.00000000
 C      1   0   0     1.379556795730     0.00000000     0.00000000
 Cl     1   2   0     2.557913486133   106.38679515     0.00000000
 Cl     2   1   3     2.946012953157   101.63753892   158.55346321
 H      2   1   3     1.368397824268    93.14613416   163.17446685
 H      1   2   3     1.083375271434   116.68536687   273.88677873
 H      2   1   3     1.093302368812   116.34345731   266.03312978
 C      1   2   3     1.491090103338   121.72874908   116.75797247
 H      8   1   2     1.090341653002   109.18757381   234.75535852
 H      8   1   2     1.093389520202   111.27058683   355.12751384
 H      8   1   2     1.095327515530   110.61230424   115.78284321
 N      2   1   3     1.435706111116   120.80766023    53.75738506
 H     12   2   1     1.012310804294   111.20590306    87.03523804
 H     12   2   1     1.014925370911   107.22664496   327.28070618

---------------------------
INTERNAL COORDINATES (A.U.)
---------------------------
 C      0   0   0     0.000000000000     0.00000000     0.00000000
 C      1   0   0     2.606984530120     0.00000000     0.00000000
 Cl     1   2   0     4.833755963055   106.38679515     0.00000000
 Cl     2   1   3     5.567157668452   101.63753892   158.55346321
 H      2   1   3     2.585897130120    93.14613416   163.17446685
 H      1   2   3     2.047282563272   116.68536687   273.88677873
 H      2   1   3     2.066042058622   116.34345731   266.03312978
 C      1   2   3     2.817751936309   121.72874908   116.75797247
 H      8   1   2     2.060447116581   109.18757381   234.75535852
 H      8   1   2     2.066206750882   111.27058683   355.12751384
 H      8   1   2     2.069869031299   110.61230424   115.78284321
 N      2   1   3     2.713091358807   120.80766023    53.75738506
 H     12   2   1     1.912990182526   111.20590306    87.03523804
 H     12   2   1     1.917930997390   107.22664496   327.28070618

---------------------
BASIS SET INFORMATION
---------------------
There are 4 groups of distinct atoms

 Group   1 Type C   : 11s5p1d contracted to 4s3p1d pattern {6311/311/1}
 Group   2 Type Cl  : 13s10p1d contracted to 6s5p1d pattern {631111/52111/1}
 Group   3 Type H   : 5s contracted to 3s pattern {311}
 Group   4 Type N   : 11s5p1d contracted to 4s3p1d pattern {6311/311/1}

Atom   0C    basis set group =>   1
Atom   1C    basis set group =>   1
Atom   2Cl   basis set group =>   2
Atom   3Cl   basis set group =>   2
Atom   4H    basis set group =>   3
Atom   5H    basis set group =>   3
Atom   6H    basis set group =>   3
Atom   7C    basis set group =>   1
Atom   8H    basis set group =>   3
Atom   9H    basis set group =>   3
Atom  10H    basis set group =>   3
Atom  11N    basis set group =>   4
Atom  12H    basis set group =>   3
Atom  13H    basis set group =>   3
------------------------------------------------------------------------------
                           ORCA GTO INTEGRAL CALCULATION
------------------------------------------------------------------------------

                         BASIS SET STATISTICS AND STARTUP INFO

 # of primitive gaussian shells          ...  156
 # of primitive gaussian functions       ...  260
 # of contracted shells                  ...   80
 # of contracted basis functions         ...  148
 Highest angular momentum                ...    2
 Maximum contraction depth               ...    6
 Integral package used                   ... LIBINT
 Integral threshhold            Thresh   ...  3.000e-16
 Primitive cut-off              TCut     ...  3.000e-18


------------------------------ INTEGRAL EVALUATION ----------------------------


 * One electron integrals 
 Pre-screening matrix                    ... done
 Shell pair data                         ... done (   0.002 sec)

-------------------------------------------------------------------------------
                                 ORCA SCF
-------------------------------------------------------------------------------

------------
SCF SETTINGS
------------
Hamiltonian:
 Ab initio Hamiltonian  Method          .... Hartree-Fock(GTOs)


General Settings:
 Integral files         IntName         .... run
 Hartree-Fock type      HFTyp           .... RHF
 Total Charge           Charge          ....   -1
 Multiplicity           Mult            ....    1
 Number of Electrons    NEL             ....   68
 Basis Dimension        Dim             ....  148
 Nuclear Repulsion      ENuc            ....    331.5797538527 Eh

Convergence Acceleration:
 DIIS                   CNVDIIS         .... on
   Start iteration      DIISMaxIt       ....    12
   Startup error        DIISStart       ....  0.200000
   # of expansion vecs  DIISMaxEq       ....     5
   Bias factor          DIISBfac        ....   1.050
   Max. coefficient     DIISMaxC        ....  10.000
 Newton-Raphson         CNVNR           .... off
 SOSCF                  CNVSOSCF        .... on
   Start iteration      SOSCFMaxIt      ....   150
   Startup grad/error   SOSCFStart      ....  0.003300
 Level Shifting         CNVShift        .... on
   Level shift para.    LevelShift      ....    0.2500
   Turn off err/grad.   ShiftErr        ....    0.0010
 Zerner damping         CNVZerner       .... off
 Static damping         CNVDamp         .... on
   Fraction old density DampFac         ....    0.7000
   Max. Damping (<1)    DampMax         ....    0.9800
   Min. Damping (>=0)   DampMin         ....    0.0000
   Turn off err/grad.   DampErr         ....    0.1000
 Fernandez-Rico         CNVRico         .... off

SCF Procedure:
 Maximum # iterations   MaxIter         ....   125
 SCF integral mode      SCFMode         .... Direct
   Integral package                     .... LIBINT
 Reset frequeny         DirectResetFreq ....    20
 Integral Threshold     Thresh          ....  3.000e-16 Eh
 Primitive CutOff       TCut            ....  3.000e-18 Eh

Convergence Tolerance:
 Convergence Check Mode ConvCheckMode   .... All-Criteria
 Convergence forced     ConvForced      .... 1
 Energy Change          TolE            ....  1.000e-14 Eh
 Max Density Change     TolMaxP         ....  1.000e-14
 RMS Density Change     TolRMSP         ....  1.000e-14
 Orbital Gradient       TolG            ....  1.000e-09
 Orbital Rotation angle TolX            ....  1.000e-09
 DIIS Error             TolErr          ....  1.000e-14


Diagonalization of the overlap matrix:
Smallest eigenvalue                        ... 1.966e-03
Time for diagonalization                   ...    0.004 sec
Threshold for overlap eigenvalues          ... 1.000e-08
Number of eigenvalues below threshold      ... 0
Time for construction of square roots      ...    0.001 sec
Total time needed                          ...    0.006 sec

-------------------
DFT GRID GENERATION
-------------------

General Integration Accuracy     IntAcc      ...  4.340
Radial Grid Type                 RadialGrid  ... Gauss-Chebyshev
Angular Grid (max. acc.)         AngularGrid ... Lebedev-110
Angular grid pruning method      GridPruning ... 3 (G Style)
Weight generation scheme         WeightScheme... Becke
Basis function cutoff            BFCut       ...    3.0000e-16
Integration weight cutoff        WCut        ...    1.0000e-14
Grids for H and He will be reduced by one unit

# of grid points (after initial pruning)     ...  16710 (   0.0 sec)
# of grid points (after weights+screening)   ...  15679 (   0.0 sec)
nearest neighbour list constructed           ...    0.0 sec
Grid point re-assignment to atoms done       ...    0.0 sec
Grid point division into batches done        ...    0.0 sec
Reduced shell lists constructed in    0.3 sec

Total number of grid points                  ...    15679
Total number of batches                      ...      253
Average number of points per batch           ...       61
Average number of grid points per atom       ...     1120
Average number of shells per batch           ...    56.72 (70.90%)
Average number of basis functions per batch  ...   107.17 (72.41%)
Average number of large shells per batch     ...    46.29 (81.62%)
Average number of large basis fcns per batch ...    86.59 (80.80%)
Maximum spatial batch extension              ...  20.76, 21.78, 18.59 au
Average spatial batch extension              ...   3.94,  4.20,  4.07 au

Time for grid setup =    0.317 sec

------------------------------
INITIAL GUESS: MODEL POTENTIAL
------------------------------
Loading Hartree-Fock densities                     ... done
Calculating cut-offs                               ... done
Setting up the integral package                    ... done
Initializing the effective Hamiltonian             ... done
Starting the Coulomb interaction                   ... done (   0.2 sec)
Reading the grid                                   ... done
Mapping shells                                     ... done
Starting the XC term evaluation                    ... done (   0.3 sec)
Transforming the Hamiltonian                       ... done (   0.0 sec)
Diagonalizing the Hamiltonian                      ... done (   0.0 sec)
Back transforming the eigenvectors                 ... done (   0.0 sec)
Now organizing SCF variables                       ... done
                      ------------------
                      INITIAL GUESS DONE (   0.9 sec)
                      ------------------
--------------
SCF ITERATIONS
--------------
ITER       Energy         Delta-E        Max-DP      RMS-DP      [F,P]     Damp
               ***  Starting incremental Fock matrix formation  ***
  0  -1091.4320651889   0.000000000000 0.05697193  0.00173529  0.6455627 0.7000
  1  -1091.5471412815  -0.115076092653 0.04261582  0.00136090  0.4551316 0.7000
  2  -1091.6178887103  -0.070747428728 0.02703100  0.00087906  0.3209806 0.7000
  3  -1091.6631023521  -0.045213641799 0.01653682  0.00055277  0.2264051 0.7000
                               ***Turning on DIIS***
  4  -1091.6936467962  -0.030544444173 0.01007746  0.00036102  0.1595406 0.7000
  5  -1092.1076246365  -0.413977840283 0.00575760  0.00026034  0.1123268 0.7000
  6  -1092.0415766238   0.066048012711 0.01728579  0.00070092  0.0787034 0.0000
  7  -1091.7752614020   0.266315221790 0.00524523  0.00012331  0.0041454 0.0000
                      *** Initiating the SOSCF procedure ***
                           *** Shutting down DIIS ***
                      *** Re-Reading the Fockian *** 
                      *** Removing any level shift *** 
ITER      Energy       Delta-E        Grad      Rot      Max-DP    RMS-DP
  8  -1091.77291908   0.0023423233  0.002794  0.002794  0.004437  0.000101
               *** Restarting incremental Fock matrix formation ***
  9  -1091.76568030   0.0072387778  0.001201  0.002494  0.002488  0.000057
 10  -1091.76569904  -0.0000187371  0.000431  0.002340  0.003238  0.000071
 11  -1091.76570650  -0.0000074584  0.000086  0.000125  0.000263  0.000009
 12  -1091.76570685  -0.0000003517  0.000043  0.000093  0.000068  0.000002
 13  -1091.76570688  -0.0000000291  0.000014  0.000068  0.000051  0.000002
 14  -1091.76570688  -0.0000000059  0.000005  0.000011  0.000016  0.000000
 15  -1091.76570688  -0.0000000005  0.000001  0.000002  0.000003  0.000000
 16  -1091.76570688  -0.0000000001  0.000000  0.000001  0.000001  0.000000
 17  -1091.76570688  -0.0000000000  0.000000  0.000000  0.000000  0.000000
 18  -1091.76570688  -0.0000000000  0.000000  0.000000  0.000000  0.000000
 19  -1091.76570688  -0.0000000000  0.000000  0.000000  0.000000  0.000000
 20  -1091.76570688   0.0000000000  0.000000  0.000000  0.000000  0.000000
 21  -1091.76570688  -0.0000000000  0.000000  0.000000  0.000000  0.000000
                    ***Orbital Rotation convergence achieved***
 22  -1091.76570688   0.0000000000  0.000000  0.000000  0.000000  0.000000
                           ***RMSP convergence achieved***
                           ***MAXP convergence achieved***
                       ***Gradient convergence achieved***
 23  -1091.76570688  -0.0000000000  0.000000  0.000000  0.000000  0.000000
                          ***Energy convergence achieved***
              ***Rediagonalizing the Fockian in SOSCF/NRSCF***

               *****************************************************
               *                     SUCCESS                       *
               *           SCF CONVERGED AFTER  24 CYCLES          *
               *****************************************************


----------------
TOTAL SCF ENERGY
----------------

Total Energy       :        -1091.76570688 Eh          -29708.45523 eV

Components:
Nuclear Repulsion  :          331.57975385 Eh            9022.74381 eV
Electronic Energy  :        -1423.34546074 Eh          -38731.19904 eV
One Electron Energy:        -2175.33148290 Eh          -59193.77900 eV
Two Electron Energy:          751.98602217 Eh           20462.57996 eV

Virial components:
Potential Energy   :        -2183.60322333 Eh          -59418.86450 eV
Kinetic Energy     :         1091.83751645 Eh           29710.40927 eV
Virial Ratio       :            1.99993423


---------------
SCF CONVERGENCE
---------------

  Last Energy change         ...    0.0000e+00  Tolerance :   1.0000e-14
  Last MAX-Density change    ...    0.0000e+00  Tolerance :   1.0000e-14
  Last RMS-Density change    ...    0.0000e+00  Tolerance :   1.0000e-14
  Last Orbital Gradient      ...    9.9888e-10  Tolerance :   1.0000e-09
  Last Orbital Rotation      ...    0.0000e+00  Tolerance :   1.0000e-09

             **** THE GBW FILE WAS UPDATED (run.gbw) ****
             **** DENSITY FILE WAS UPDATED (run.scfp.tmp) ****
             **** ENERGY FILE WAS UPDATED (run.en.tmp) ****
----------------
ORBITAL ENERGIES
----------------

  NO   OCC          E(Eh)            E(eV) 
   0   2.0000    -104.618010     -2846.8008 
   1   2.0000    -104.576123     -2845.6610 
   2   2.0000     -15.411215      -419.3605 
   3   2.0000     -11.191692      -304.5414 
   4   2.0000     -11.129625      -302.8525 
   5   2.0000     -11.126317      -302.7625 
   6   2.0000     -10.344672      -281.4928 
   7   2.0000     -10.302171      -280.3363 
   8   2.0000      -7.812176      -212.5801 
   9   2.0000      -7.810800      -212.5427 
  10   2.0000      -7.810789      -212.5424 
  11   2.0000      -7.769237      -211.4117 
  12   2.0000      -7.768750      -211.3984 
  13   2.0000      -7.768677      -211.3965 
  14   2.0000      -1.072733       -29.1906 
  15   2.0000      -0.959605       -26.1122 
  16   2.0000      -0.874168       -23.7873 
  17   2.0000      -0.817815       -22.2539 
  18   2.0000      -0.812234       -22.1020 
  19   2.0000      -0.671161       -18.2632 
  20   2.0000      -0.548071       -14.9138 
  21   2.0000      -0.533361       -14.5135 
  22   2.0000      -0.502123       -13.6635 
  23   2.0000      -0.476489       -12.9659 
  24   2.0000      -0.437771       -11.9123 
  25   2.0000      -0.415017       -11.2932 
  26   2.0000      -0.406780       -11.0691 
  27   2.0000      -0.282730        -7.6935 
  28   2.0000      -0.266023        -7.2389 
  29   2.0000      -0.265774        -7.2321 
  30   2.0000      -0.259327        -7.0566 
  31   2.0000      -0.226953        -6.1757 
  32   2.0000      -0.225243        -6.1292 
  33   2.0000      -0.186084        -5.0636 
  34   0.0000       0.222328         6.0499 
  35   0.0000       0.271135         7.3780 
  36   0.0000       0.289878         7.8880 
  37   0.0000       0.313664         8.5352 
  38   0.0000       0.337588         9.1862 
  39   0.0000       0.353723         9.6253 
  40   0.0000       0.358878         9.7656 
  41   0.0000       0.378874        10.3097 
  42   0.0000       0.419667        11.4197 
  43   0.0000       0.470598        12.8056 
  44   0.0000       0.492346        13.3974 
  45   0.0000       0.531255        14.4562 
  46   0.0000       0.554905        15.0997 
  47   0.0000       0.560610        15.2550 
  48   0.0000       0.587472        15.9859 
  49   0.0000       0.599454        16.3120 
  50   0.0000       0.612775        16.6745 
  51   0.0000       0.638066        17.3627 
  52   0.0000       0.658801        17.9269 
  53   0.0000       0.674596        18.3567 
  54   0.0000       0.679295        18.4846 
  55   0.0000       0.694734        18.9047 
  56   0.0000       0.731244        19.8982 
  57   0.0000       0.735660        20.0183 
  58   0.0000       0.760854        20.7039 
  59   0.0000       0.795501        21.6467 
  60   0.0000       0.845633        23.0108 
  61   0.0000       0.870413        23.6852 
  62   0.0000       0.890557        24.2333 
  63   0.0000       0.898015        24.4362 
  64   0.0000       0.917078        24.9550 
  65   0.0000       0.922244        25.0955 
  66   0.0000       0.941315        25.6145 
  67   0.0000       0.964059        26.2334 
  68   0.0000       1.017683        27.6926 
  69   0.0000       1.036714        28.2104 
  70   0.0000       1.086738        29.5716 
  71   0.0000       1.138279        30.9742 
  72   0.0000       1.152552        31.3625 
  73   0.0000       1.173741        31.9391 
  74   0.0000       1.220683        33.2165 
  75   0.0000       1.253767        34.1167 
  76   0.0000       1.301138        35.4058 
  77   0.0000       1.351013        36.7629 
  78   0.0000       1.354959        36.8703 
  79   0.0000       1.359412        36.9915 
  80   0.0000       1.364557        37.1315 
  81   0.0000       1.401640        38.1406 
  82   0.0000       1.405476        38.2449 
  83   0.0000       1.420018        38.6406 
  84   0.0000       1.444616        39.3100 
  85   0.0000       1.458650        39.6919 
  86   0.0000       1.532792        41.7094 
  87   0.0000       1.578886        42.9637 
  88   0.0000       1.647681        44.8357 
  89   0.0000       1.670133        45.4466 
  90   0.0000       1.759558        47.8800 
  91   0.0000       1.786809        48.6215 
  92   0.0000       1.868492        50.8443 
  93   0.0000       1.889240        51.4088 
  94   0.0000       1.903950        51.8091 
  95   0.0000       1.975802        53.7643 
  96   0.0000       2.053637        55.8823 
  97   0.0000       2.115960        57.5782 
  98   0.0000       2.133789        58.0634 
  99   0.0000       2.317283        63.0565 
 100   0.0000       2.334561        63.5266 
 101   0.0000       2.387192        64.9588 
 102   0.0000       2.411981        65.6333 
 103   0.0000       2.460082        66.9422 
 104   0.0000       2.556707        69.5715 
 105   0.0000       2.663105        72.4668 
 106   0.0000       2.674114        72.7663 
 107   0.0000       2.686819        73.1121 
 108   0.0000       2.693567        73.2957 
 109   0.0000       2.728087        74.2350 
 110   0.0000       2.749034        74.8050 
 111   0.0000       2.774433        75.4961 
 112   0.0000       2.810329        76.4729 
 113   0.0000       2.836234        77.1778 
 114   0.0000       2.872671        78.1693 
 115   0.0000       2.874576        78.2212 
 116   0.0000       2.904272        79.0293 
 117   0.0000       3.015703        82.0614 
 118   0.0000       3.077325        83.7383 
 119   0.0000       3.244242        88.2803 
 120   0.0000       3.268462        88.9394 
 121   0.0000       3.338720        90.8512 
 122   0.0000       3.433075        93.4187 
 123   0.0000       3.491381        95.0053 
 124   0.0000       3.540243        96.3349 
 125   0.0000       3.626045        98.6697 
 126   0.0000       3.682822       100.2147 
 127   0.0000       3.743107       101.8551 
 128   0.0000       3.853253       104.8523 
 129   0.0000       4.155722       113.0830 
 130   0.0000       4.461937       121.4155 
 131   0.0000       4.506332       122.6235 
 132   0.0000       4.690723       127.6411 
 133   0.0000       5.204138       141.6118 
 134   0.0000      10.411806       283.3196 
 135   0.0000      10.530809       286.5579 
 136   0.0000      24.629161       670.1935 
 137   0.0000      24.926020       678.2715 
 138   0.0000      25.277008       687.8224 
 139   0.0000      26.462728       720.0874 
 140   0.0000      26.503480       721.1964 
 141   0.0000      26.530920       721.9430 
 142   0.0000      26.611144       724.1260 
 143   0.0000      26.784236       728.8361 
 144   0.0000      26.829781       730.0754 
 145   0.0000      36.976030      1006.1689 
 146   0.0000     219.229531      5965.5388 
 147   0.0000     219.373566      5969.4582 

                    ********************************
                    * MULLIKEN POPULATION ANALYSIS *
                    ********************************

-----------------------
MULLIKEN ATOMIC CHARGES
-----------------------
   0 C :   -0.025365
   1 C :   -0.243430
   2 Cl:   -0.810224
   3 Cl:   -0.696224
   4 H :    0.336575
   5 H :    0.271520
   6 H :    0.220955
   7 C :   -0.631495
   8 H :    0.280103
   9 H :    0.213265
  10 H :    0.213764
  11 N :   -0.845404
  12 H :    0.341639
  13 H :    0.374323
Sum of atomic charges:   -1.0000000

--------------------------------
MULLIKEN REDUCED ORBITAL CHARGES
--------------------------------
  0 C s       :     3.328281  s :     3.328281
      pz      :     0.943704  p :     2.613443
      px      :     0.623607
      py      :     1.046132
      dz2     :     0.018678  d :     0.083640
      dxz     :     0.018017
      dyz     :     0.025703
      dx2y2   :     0.014428
      dxy     :     0.006813
  1 C s       :     3.218522  s :     3.218522
      pz      :     0.837611  p :     2.927983
      px      :     1.110671
      py      :     0.979702
      dz2     :     0.028513  d :     0.096925
      dxz     :     0.010045
      dyz     :     0.028900
      dx2y2   :     0.020446
      dxy     :     0.009021
  2 Cls       :     5.985418  s :     5.985418
      pz      :     3.971729  p :    11.823417
      px      :     3.866342
      py      :     3.985346
      dz2     :     0.000166  d :     0.001389
      dxz     :     0.000393
      dyz     :     0.000068
      dx2y2   :     0.000533
      dxy     :     0.000229
  3 Cls       :     5.979841  s :     5.979841
      pz      :     3.957205  p :    11.709933
      px      :     3.777039
      py      :     3.975690
      dz2     :     0.000646  d :     0.006450
      dxz     :     0.001977
      dyz     :     0.000169
      dx2y2   :     0.002605
      dxy     :     0.001053
  4 H s       :     0.663425  s :     0.663425
  5 H s       :     0.728480  s :     0.728480
  6 H s       :     0.779045  s :     0.779045
  7 C s       :     3.353019  s :     3.353019
      pz      :     1.108724  p :     3.210756
      px      :     1.118370
      py      :     0.983661
      dz2     :     0.003102  d :     0.067720
      dxz     :     0.020010
      dyz     :     0.020583
      dx2y2   :     0.018806
      dxy     :     0.005218
  8 H s       :     0.719897  s :     0.719897
  9 H s       :     0.786735  s :     0.786735
 10 H s       :     0.786236  s :     0.786236
 11 N s       :     3.682917  s :     3.682917
      pz      :     1.685681  p :     4.126218
      px      :     1.264093
      py      :     1.176445
      dz2     :     0.004055  d :     0.036269
      dxz     :     0.008091
      dyz     :     0.007295
      dx2y2   :     0.002476
      dxy     :     0.014352
 12 H s       :     0.658361  s :     0.658361
 13 H s       :     0.625677  s :     0.625677


                     *******************************
                     * LOEWDIN POPULATION ANALYSIS *
                     *******************************

----------------------
LOEWDIN ATOMIC CHARGES
----------------------
   0 C :    0.076775
   1 C :   -0.243790
   2 Cl:   -0.743185
   3 Cl:   -0.602790
   4 H :    0.189342
   5 H :    0.127441
   6 H :    0.099325
   7 C :   -0.277360
   8 H :    0.135573
   9 H :    0.106891
  10 H :    0.111075
  11 N :   -0.373829
  12 H :    0.194226
  13 H :    0.200305

-------------------------------
LOEWDIN REDUCED ORBITAL CHARGES
-------------------------------
  0 C s       :     2.896500  s :     2.896500
      pz      :     1.111457  p :     2.871350
      px      :     0.654994
      py      :     1.104900
      dz2     :     0.037525  d :     0.155374
      dxz     :     0.033721
      dyz     :     0.048663
      dx2y2   :     0.022831
      dxy     :     0.012634
  1 C s       :     2.843610  s :     2.843610
      pz      :     1.065675  p :     3.205488
      px      :     1.113526
      py      :     1.026288
      dz2     :     0.061899  d :     0.194691
      dxz     :     0.018214
      dyz     :     0.057994
      dx2y2   :     0.037482
      dxy     :     0.019102
  2 Cls       :     5.941471  s :     5.941471
      pz      :     3.961563  p :    11.800179
      px      :     3.859987
      py      :     3.978628
      dz2     :     0.000157  d :     0.001535
      dxz     :     0.000482
      dyz     :     0.000086
      dx2y2   :     0.000588
      dxy     :     0.000222
  3 Cls       :     5.877766  s :     5.877766
      pz      :     3.962029  p :    11.717788
      px      :     3.779261
      py      :     3.976497
      dz2     :     0.000717  d :     0.007236
      dxz     :     0.002208
      dyz     :     0.000185
      dx2y2   :     0.002940
      dxy     :     0.001185
  4 H s       :     0.810658  s :     0.810658
  5 H s       :     0.872559  s :     0.872559
  6 H s       :     0.900675  s :     0.900675
  7 C s       :     2.883621  s :     2.883621
      pz      :     1.100323  p :     3.287665
      px      :     1.112988
      py      :     1.074354
      dz2     :     0.006376  d :     0.106075
      dxz     :     0.027093
      dyz     :     0.034066
      dx2y2   :     0.029372
      dxy     :     0.009168
  8 H s       :     0.864427  s :     0.864427
  9 H s       :     0.893109  s :     0.893109
 10 H s       :     0.888925  s :     0.888925
 11 N s       :     3.188417  s :     3.188417
      pz      :     1.634822  p :     4.133773
      px      :     1.274919
      py      :     1.224031
      dz2     :     0.004840  d :     0.051640
      dxz     :     0.009791
      dyz     :     0.011315
      dx2y2   :     0.005561
      dxy     :     0.020133
 12 H s       :     0.805774  s :     0.805774
 13 H s       :     0.799695  s :     0.799695


                      *****************************
                      * MAYER POPULATION ANALYSIS *
                      *****************************

  NA   - Mulliken gross atomic population
  ZA   - Total nuclear charge
  QA   - Mulliken gross atomic charge
  VA   - Mayer's total valence
  BVA  - Mayer's bonded valence
  FA   - Mayer's free valence

  ATOM       NA         ZA         QA         VA         BVA        FA
  0 C      6.0254     6.0000    -0.0254     3.5354     3.5354    -0.0000
  1 C      6.2434     6.0000    -0.2434     3.5232     3.5232    -0.0000
  2 Cl    17.8102    17.0000    -0.8102     0.2772     0.2772    -0.0000
  3 Cl    17.6962    17.0000    -0.6962     0.4312     0.4312     0.0000
  4 H      0.6634     1.0000     0.3366     0.8340     0.8340     0.0000
  5 H      0.7285     1.0000     0.2715     0.8910     0.8910    -0.0000
  6 H      0.7790     1.0000     0.2210     0.9240     0.9240    -0.0000
  7 C      6.6315     6.0000    -0.6315     3.6611     3.6611    -0.0000
  8 H      0.7199     1.0000     0.2801     0.8881     0.8881    -0.0000
  9 H      0.7867     1.0000     0.2133     0.9179     0.9179     0.0000
 10 H      0.7862     1.0000     0.2138     0.9086     0.9086     0.0000
 11 N      7.8454     7.0000    -0.8454     2.5859     2.5859    -0.0000
 12 H      0.6584     1.0000     0.3416     0.8501     0.8501    -0.0000
 13 H      0.6257     1.0000     0.3743     0.8327     0.8327    -0.0000

  Mayer bond orders larger than 0.1
B(  0-C ,  1-C ) :   1.3461 B(  0-C ,  2-Cl) :   0.2935 B(  0-C ,  5-H ) :   0.9174 
B(  0-C ,  7-C ) :   0.9386 B(  1-C ,  4-H ) :   0.4217 B(  1-C ,  6-H ) :   0.9441 
B(  1-C , 11-N ) :   0.9118 B(  3-Cl,  4-H ) :   0.3754 B(  7-C ,  8-H ) :   0.9062 
B(  7-C ,  9-H ) :   0.9482 B(  7-C , 10-H ) :   0.9343 B( 11-N , 12-H ) :   0.8482 
B( 11-N , 13-H ) :   0.8295 

-------
TIMINGS
-------

Total SCF time: 0 days 0 hours 1 min 27 sec 

Total time                  ....      87.839 sec
Sum of individual times     ....      87.798 sec  (100.0%)

Fock matrix formation       ....      86.832 sec  ( 98.9%)
Diagonalization             ....       0.048 sec  (  0.1%)
Density matrix formation    ....       0.007 sec  (  0.0%)
Population analysis         ....       0.006 sec  (  0.0%)
Initial guess               ....       0.540 sec  (  0.6%)
Orbital Transformation      ....       0.000 sec  (  0.0%)
Orbital Orthonormalization  ....       0.000 sec  (  0.0%)
DIIS solution               ....       0.010 sec  (  0.0%)
SOSCF solution              ....       0.038 sec  (  0.0%)

------------------------------------------------------------------------------
                                ORCA  MP2 
------------------------------------------------------------------------------

MP2 will be done in the AO integral direct mode
The Q1-step will be done using symmetric double matrices
Dimension of the basis                    ...  148
Memory devoted for MP2                    ... 5000 MB   
Memory needed for all in one shot         ...  424 MB
Number of MOs that can be treated together...  400      
MP2 density construction                  ... relaxed
The MP2 gradient is requested => amplitudes will be stored on disk
Total number of MOs              ...   34
Number of MOs treated per batch  ...   34 
Number of batches necessary      ...    1 
OPERATORS   0/  0 PASS   0
-----------------------------------------------
 MP2 CORRELATION ENERGY   :     -1.051131335 Eh
-----------------------------------------------


---------------------
MP2 DENSITY FORMATION
---------------------

Completing the external part of the density      ... done
Storing the unrelaxed density                    ... done

Calculating G(D)                                 ... done
Completing the Lagrangian                        ... done
Solving the Z-vector equations                   ... 

------------------------------------------------------------------------------
                           ORCA CP-SCF CALCULATION
------------------------------------------------------------------------------

Input orbitals are from        ... run.gbw
Input Perturbation             ... run.pin.tmp
Wavefunction output            ... run.pout.tmp
Perturbation mode              ... Real perturbation
Solver                         ... POPLE
Max. number of iterations      ... 128
Convergence tolerance          ... 1.000e-11
Integral handling              ... Direct
Number of perturbations        ... 1
Number of operators            ... 1
Orbital ranges used for CP-SCF:
 Operator 0:  Orbitals   0... 33  to  34...147
Variables per vector in CP-SCF ... 3876
Number of vectors sought       ... 1
     CP-SCF ITERATION   0: 
     CP-SCF ITERATION   1:      0.003069918071
     CP-SCF ITERATION   2:      0.000313838437
     CP-SCF ITERATION   3:      0.000049296184
     CP-SCF ITERATION   4:      0.000004704356
     CP-SCF ITERATION   5:      0.000000660538
     CP-SCF ITERATION   6:      0.000000046229
     CP-SCF ITERATION   7:      0.000000003440
     CP-SCF ITERATION   8:      0.000000000284
     CP-SCF ITERATION   9:      0.000000000033
     CP-SCF ITERATION  10:      0.000000000004
                                                 ... done
Finalizing the relaxed density                   ... done
Transforming P to the AO basis                   ... done
Storing the relaxed density                      ... done

------------------------------------
ENERGY WEIGHTED DENSITY FINALIZATION
------------------------------------

Gathering the parts of the W-matrix              ...                                                      done
Forming the Z-density                            ... done
Transforming Z to the AO basis                   ... done
Calculating G(Z)                                 ... done
Finalizing the W-matrix                          ...                                                      done
Transforming W to the AO basis and storing       ... done

                *********************************************
                * UNRELAXED MP2 DENSITY POPULATION ANALYSIS *
                *********************************************

------------------------------------------------------------------------------
                           ORCA POPULATION ANALYSIS
------------------------------------------------------------------------------
Input electron density              ... run.pmp2ur
BaseName (.gbw .S,...)              ... run

                    ********************************
                    * MULLIKEN POPULATION ANALYSIS *
                    ********************************

-----------------------
MULLIKEN ATOMIC CHARGES
-----------------------
   0 C :   -0.047882
   1 C :   -0.243505
   2 Cl:   -0.800512
   3 Cl:   -0.687719
   4 H :    0.330628
   5 H :    0.273322
   6 H :    0.223403
   7 C :   -0.636807
   8 H :    0.281469
   9 H :    0.215723
  10 H :    0.216160
  11 N :   -0.837811
  12 H :    0.340846
  13 H :    0.372684
Sum of atomic charges:   -1.0000000

--------------------------------
MULLIKEN REDUCED ORBITAL CHARGES
--------------------------------
  0 C s       :     3.324392  s :     3.324392
      pz      :     0.940854  p :     2.622769
      px      :     0.639403
      py      :     1.042512
      dz2     :     0.022023  d :     0.100721
      dxz     :     0.021121
      dyz     :     0.029836
      dx2y2   :     0.017424
      dxy     :     0.010317
  1 C s       :     3.215183  s :     3.215183
      pz      :     0.835973  p :     2.910203
      px      :     1.096559
      py      :     0.977670
      dz2     :     0.031935  d :     0.118119
      dxz     :     0.015214
      dyz     :     0.032840
      dx2y2   :     0.024790
      dxy     :     0.013340
  2 Cls       :     5.978234  s :     5.978234
      pz      :     3.955014  p :    11.771169
      px      :     3.846940
      py      :     3.969215
      dz2     :     0.010058  d :     0.051109
      dxz     :     0.010425
      dyz     :     0.009887
      dx2y2   :     0.010509
      dxy     :     0.010231
  3 Cls       :     5.972196  s :     5.972196
      pz      :     3.941020  p :    11.659436
      px      :     3.758854
      py      :     3.959562
      dz2     :     0.010524  d :     0.056086
      dxz     :     0.011953
      dyz     :     0.009966
      dx2y2   :     0.012625
      dxy     :     0.011019
  4 H s       :     0.669372  s :     0.669372
  5 H s       :     0.726678  s :     0.726678
  6 H s       :     0.776597  s :     0.776597
  7 C s       :     3.349351  s :     3.349351
      pz      :     1.104624  p :     3.199335
      px      :     1.114172
      py      :     0.980539
      dz2     :     0.007682  d :     0.088121
      dxz     :     0.023988
      dyz     :     0.024137
      dx2y2   :     0.022597
      dxy     :     0.009716
  8 H s       :     0.718531  s :     0.718531
  9 H s       :     0.784277  s :     0.784277
 10 H s       :     0.783840  s :     0.783840
 11 N s       :     3.678410  s :     3.678410
      pz      :     1.673888  p :     4.103259
      px      :     1.258389
      py      :     1.170981
      dz2     :     0.008366  d :     0.056142
      dxz     :     0.012156
      dyz     :     0.011247
      dx2y2   :     0.006457
      dxy     :     0.017916
 12 H s       :     0.659154  s :     0.659154
 13 H s       :     0.627316  s :     0.627316


                     *******************************
                     * LOEWDIN POPULATION ANALYSIS *
                     *******************************

----------------------
LOEWDIN ATOMIC CHARGES
----------------------
   0 C :    0.054820
   1 C :   -0.247402
   2 Cl:   -0.733796
   3 Cl:   -0.594102
   4 H :    0.185806
   5 H :    0.130977
   6 H :    0.103443
   7 C :   -0.288433
   8 H :    0.138694
   9 H :    0.110767
  10 H :    0.114787
  11 N :   -0.372025
  12 H :    0.195450
  13 H :    0.201013

-------------------------------
LOEWDIN REDUCED ORBITAL CHARGES
-------------------------------
  0 C s       :     2.895132  s :     2.895132
      pz      :     1.105011  p :     2.874317
      px      :     0.669757
      py      :     1.099549
      dz2     :     0.042591  d :     0.175731
      dxz     :     0.036774
      dyz     :     0.053267
      dx2y2   :     0.026598
      dxy     :     0.016501
  1 C s       :     2.844265  s :     2.844265
      pz      :     1.059560  p :     3.183823
      px      :     1.100949
      py      :     1.023314
      dz2     :     0.066793  d :     0.219313
      dxz     :     0.023948
      dyz     :     0.062132
      dx2y2   :     0.042399
      dxy     :     0.024041
  2 Cls       :     5.934156  s :     5.934156
      pz      :     3.944715  p :    11.747585
      px      :     3.840478
      py      :     3.962392
      dz2     :     0.010163  d :     0.052054
      dxz     :     0.010714
      dyz     :     0.009960
      dx2y2   :     0.010853
      dxy     :     0.010365
  3 Cls       :     5.870317  s :     5.870317
      pz      :     3.945661  p :    11.666222
      px      :     3.760287
      py      :     3.960275
      dz2     :     0.010655  d :     0.057563
      dxz     :     0.012404
      dyz     :     0.010013
      dx2y2   :     0.013184
      dxy     :     0.011308
  4 H s       :     0.814194  s :     0.814194
  5 H s       :     0.869023  s :     0.869023
  6 H s       :     0.896557  s :     0.896557
  7 C s       :     2.884379  s :     2.884379
      pz      :     1.096104  p :     3.274546
      px      :     1.108999
      py      :     1.069443
      dz2     :     0.011259  d :     0.129508
      dxz     :     0.031769
      dyz     :     0.038563
      dx2y2   :     0.033866
      dxy     :     0.014050
  8 H s       :     0.861306  s :     0.861306
  9 H s       :     0.889233  s :     0.889233
 10 H s       :     0.885213  s :     0.885213
 11 N s       :     3.187418  s :     3.187418
      pz      :     1.623674  p :     4.111013
      px      :     1.269399
      py      :     1.217940
      dz2     :     0.009417  d :     0.073594
      dxz     :     0.014197
      dyz     :     0.015897
      dx2y2   :     0.009822
      dxy     :     0.024260
 12 H s       :     0.804550  s :     0.804550
 13 H s       :     0.798987  s :     0.798987


                      *****************************
                      * MAYER POPULATION ANALYSIS *
                      *****************************

  NA   - Mulliken gross atomic population
  ZA   - Total nuclear charge
  QA   - Mulliken gross atomic charge
  VA   - Mayer's total valence
  BVA  - Mayer's bonded valence
  FA   - Mayer's free valence

  ATOM       NA         ZA         QA         VA         BVA        FA
  0 C      6.0479     6.0000    -0.0479     3.6488     3.3216     0.3271
  1 C      6.2435     6.0000    -0.2435     3.6430     3.3089     0.3341
  2 Cl    17.8005    17.0000    -0.8005     0.6745     0.2579     0.4166
  3 Cl    17.6877    17.0000    -0.6877     0.8096     0.4018     0.4079
  4 H      0.6694     1.0000     0.3306     0.8381     0.7818     0.0563
  5 H      0.7267     1.0000     0.2733     0.8922     0.8551     0.0370
  6 H      0.7766     1.0000     0.2234     0.9248     0.8846     0.0402
  7 C      6.6368     6.0000    -0.6368     3.7772     3.5021     0.2751
  8 H      0.7185     1.0000     0.2815     0.8896     0.8522     0.0374
  9 H      0.7843     1.0000     0.2157     0.9192     0.8813     0.0379
 10 H      0.7838     1.0000     0.2162     0.9100     0.8711     0.0389
 11 N      7.8378     7.0000    -0.8378     2.7929     2.4569     0.3360
 12 H      0.6592     1.0000     0.3408     0.8528     0.8128     0.0399
 13 H      0.6273     1.0000     0.3727     0.8361     0.7965     0.0396

  Mayer bond orders larger than 0.1
B(  0-C ,  1-C ) :   1.2577 B(  0-C ,  2-Cl) :   0.2771 B(  0-C ,  5-H ) :   0.8822 
B(  0-C ,  7-C ) :   0.8863 B(  1-C ,  4-H ) :   0.3946 B(  1-C ,  6-H ) :   0.9067 
B(  1-C , 11-N ) :   0.8571 B(  3-Cl,  4-H ) :   0.3600 B(  7-C ,  8-H ) :   0.8719 
B(  7-C ,  9-H ) :   0.9121 B(  7-C , 10-H ) :   0.8983 B( 11-N , 12-H ) :   0.8123 
B( 11-N , 13-H ) :   0.7947 


                *******************************************
                * RELAXED MP2 DENSITY POPULATION ANALYSIS *
                *******************************************

------------------------------------------------------------------------------
                           ORCA POPULATION ANALYSIS
------------------------------------------------------------------------------
Input electron density              ... run.pmp2re
BaseName (.gbw .S,...)              ... run

                    ********************************
                    * MULLIKEN POPULATION ANALYSIS *
                    ********************************

-----------------------
MULLIKEN ATOMIC CHARGES
-----------------------
   0 C :   -0.108185
   1 C :   -0.237346
   2 Cl:   -0.748713
   3 Cl:   -0.621041
   4 H :    0.296025
   5 H :    0.250111
   6 H :    0.225091
   7 C :   -0.671684
   8 H :    0.278023
   9 H :    0.213986
  10 H :    0.218778
  11 N :   -0.790266
  12 H :    0.332122
  13 H :    0.363099
Sum of atomic charges:   -1.0000000

--------------------------------
MULLIKEN REDUCED ORBITAL CHARGES
--------------------------------
  0 C s       :     3.303934  s :     3.303934
      pz      :     0.920663  p :     2.714058
      px      :     0.779712
      py      :     1.013682
      dz2     :     0.019929  d :     0.090194
      dxz     :     0.018207
      dyz     :     0.026823
      dx2y2   :     0.015324
      dxy     :     0.009911
  1 C s       :     3.211608  s :     3.211608
      pz      :     0.883876  p :     2.916300
      px      :     1.038078
      py      :     0.994346
      dz2     :     0.027525  d :     0.109437
      dxz     :     0.016061
      dyz     :     0.031476
      dx2y2   :     0.021946
      dxy     :     0.012429
  2 Cls       :     5.977823  s :     5.977823
      pz      :     3.943558  p :    11.719700
      px      :     3.812295
      py      :     3.963847
      dz2     :     0.010061  d :     0.051189
      dxz     :     0.010458
      dyz     :     0.009897
      dx2y2   :     0.010536
      dxy     :     0.010237
  3 Cls       :     5.967834  s :     5.967834
      pz      :     3.934325  p :    11.596675
      px      :     3.709433
      py      :     3.952917
      dz2     :     0.010585  d :     0.056532
      dxz     :     0.012037
      dyz     :     0.009965
      dx2y2   :     0.012850
      dxy     :     0.011094
  4 H s       :     0.703975  s :     0.703975
  5 H s       :     0.749889  s :     0.749889
  6 H s       :     0.774909  s :     0.774909
  7 C s       :     3.336429  s :     3.336429
      pz      :     1.122916  p :     3.257689
      px      :     1.123228
      py      :     1.011545
      dz2     :     0.007705  d :     0.077566
      dxz     :     0.020861
      dyz     :     0.020248
      dx2y2   :     0.019397
      dxy     :     0.009354
  8 H s       :     0.721977  s :     0.721977
  9 H s       :     0.786014  s :     0.786014
 10 H s       :     0.781222  s :     0.781222
 11 N s       :     3.650720  s :     3.650720
      pz      :     1.663847  p :     4.087494
      px      :     1.255372
      py      :     1.168275
      dz2     :     0.008334  d :     0.052052
      dxz     :     0.011324
      dyz     :     0.010415
      dx2y2   :     0.006073
      dxy     :     0.015906
 12 H s       :     0.667878  s :     0.667878
 13 H s       :     0.636901  s :     0.636901


                     *******************************
                     * LOEWDIN POPULATION ANALYSIS *
                     *******************************

----------------------
LOEWDIN ATOMIC CHARGES
----------------------
   0 C :   -0.029795
   1 C :   -0.235811
   2 Cl:   -0.694752
   3 Cl:   -0.539463
   4 H :    0.177700
   5 H :    0.123626
   6 H :    0.110116
   7 C :   -0.321166
   8 H :    0.141269
   9 H :    0.114733
  10 H :    0.119729
  11 N :   -0.367764
  12 H :    0.197848
  13 H :    0.203728

-------------------------------
LOEWDIN REDUCED ORBITAL CHARGES
-------------------------------
  0 C s       :     2.888637  s :     2.888637
      pz      :     1.092385  p :     2.973211
      px      :     0.793661
      py      :     1.087165
      dz2     :     0.042548  d :     0.167947
      dxz     :     0.032673
      dyz     :     0.051408
      dx2y2   :     0.024876
      dxy     :     0.016442
  1 C s       :     2.851191  s :     2.851191
      pz      :     1.082429  p :     3.171708
      px      :     1.059883
      py      :     1.029396
      dz2     :     0.061302  d :     0.212912
      dxz     :     0.026967
      dyz     :     0.061265
      dx2y2   :     0.040118
      dxy     :     0.023260
  2 Cls       :     5.936090  s :     5.936090
      pz      :     3.936439  p :    11.706427
      px      :     3.810596
      py      :     3.959391
      dz2     :     0.010175  d :     0.052236
      dxz     :     0.010778
      dyz     :     0.009974
      dx2y2   :     0.010930
      dxy     :     0.010379
  3 Cls       :     5.870845  s :     5.870845
      pz      :     3.940273  p :    11.610608
      px      :     3.714862
      py      :     3.955473
      dz2     :     0.010711  d :     0.058009
      dxz     :     0.012497
      dyz     :     0.010014
      dx2y2   :     0.013394
      dxy     :     0.011394
  4 H s       :     0.822300  s :     0.822300
  5 H s       :     0.876374  s :     0.876374
  6 H s       :     0.889884  s :     0.889884
  7 C s       :     2.887322  s :     2.887322
      pz      :     1.108834  p :     3.314219
      px      :     1.117653
      py      :     1.087732
      dz2     :     0.011343  d :     0.119625
      dxz     :     0.029220
      dyz     :     0.034340
      dx2y2   :     0.030539
      dxy     :     0.014183
  8 H s       :     0.858731  s :     0.858731
  9 H s       :     0.885267  s :     0.885267
 10 H s       :     0.880271  s :     0.880271
 11 N s       :     3.187075  s :     3.187075
      pz      :     1.617376  p :     4.110851
      px      :     1.271936
      py      :     1.221539
      dz2     :     0.009451  d :     0.069837
      dxz     :     0.013433
      dyz     :     0.015180
      dx2y2   :     0.009381
      dxy     :     0.022391
 12 H s       :     0.802152  s :     0.802152
 13 H s       :     0.796272  s :     0.796272


                      *****************************
                      * MAYER POPULATION ANALYSIS *
                      *****************************

  NA   - Mulliken gross atomic population
  ZA   - Total nuclear charge
  QA   - Mulliken gross atomic charge
  VA   - Mayer's total valence
  BVA  - Mayer's bonded valence
  FA   - Mayer's free valence

  ATOM       NA         ZA         QA         VA         BVA        FA
  0 C      6.1082     6.0000    -0.1082     3.7914     3.5026     0.2888
  1 C      6.2373     6.0000    -0.2373     3.7520     3.4372     0.3148
  2 Cl    17.7487    17.0000    -0.7487     0.7564     0.3502     0.4062
  3 Cl    17.6210    17.0000    -0.6210     0.9066     0.5116     0.3950
  4 H      0.7040     1.0000     0.2960     0.8592     0.8058     0.0534
  5 H      0.7499     1.0000     0.2501     0.9064     0.8709     0.0355
  6 H      0.7749     1.0000     0.2251     0.9232     0.8841     0.0390
  7 C      6.6717     6.0000    -0.6717     3.8017     3.5309     0.2709
  8 H      0.7220     1.0000     0.2780     0.8925     0.8561     0.0364
  9 H      0.7860     1.0000     0.2140     0.9181     0.8810     0.0371
 10 H      0.7812     1.0000     0.2188     0.9069     0.8689     0.0380
 11 N      7.7903     7.0000    -0.7903     2.8667     2.5365     0.3302
 12 H      0.6679     1.0000     0.3321     0.8589     0.8196     0.0393
 13 H      0.6369     1.0000     0.3631     0.8489     0.8102     0.0387

  Mayer bond orders larger than 0.1
B(  0-C ,  1-C ) :   1.3363 B(  0-C ,  2-Cl) :   0.2946 B(  0-C ,  5-H ) :   0.8879 
B(  0-C ,  7-C ) :   0.9103 B(  1-C ,  4-H ) :   0.3582 B(  1-C ,  6-H ) :   0.8931 
B(  1-C , 11-N ) :   0.9106 B(  3-Cl,  4-H ) :   0.4116 B(  7-C ,  8-H ) :   0.8671 
B(  7-C ,  9-H ) :   0.9072 B(  7-C , 10-H ) :   0.8933 B( 11-N , 12-H ) :   0.8113 
B( 11-N , 13-H ) :   0.7935 


----------------------------------
MP2 DERIVATIVE INTEGRAL GENERATION
----------------------------------


Input Wavefunction Amplitudes       ... run.mp2tsaa.tmp.proc0
Input Correlated Electron Density   ... run.pmp2re
Input Energy Weighted Density       ... run.wmp2.tmp
Input SCF Electron Density          ... run.scfp.tmp

One-Electron Terms    ...
                        ... One-Electron Terms done
Prescreening matrices              ... done

Batch handling in the gradient evaluation:
Memory available                      ... 5000.0 MB
Memory per occupied orbital in Q2     ...    5.7 MB
Memory per occupied orbital in Q3     ...    0.0 MB
Total memory requirement per |i>      ...    5.7 MB
Max. Number of orbitals possible      ...    875
Number of orbitals treated per batch  ...     34
Number of batches to be done          ...      1
Batch   0: i=    0 ...    33

---------------------------------------
MP2 TOTAL ENERGY:    -1092.816838219 Eh
---------------------------------------

-----------------------------------
NORM OF THE MP2 GRADIENT:  0.005161
-----------------------------------

-------------------------   --------------------
FINAL SINGLE POINT ENERGY     -1092.816838218874
-------------------------   --------------------

------------------------------------------------------------------------------
                         ORCA GEOMETRY RELAXATION STEP
------------------------------------------------------------------------------

Reading the OPT-File                    .... done
Getting information on internals        .... done
Copying old internal coords+grads       .... done
Making the new internal coordinates     .... (new redundants).... done
Validating the new internal coordinates .... (new redundants).... done
Calculating the B-matrix                .... done
Calculating the G,G- and P matrices     .... done
Transforming gradient to internals      .... done
Projecting the internal gradient        .... done
Number of atoms                         ....  14
Number of internal coordinates          .... 103
Current Energy                          .... -1092.816838219 Eh
Current gradient norm                   ....     0.005161459 Eh/bohr
Maximum allowed component of the step   ....  0.300
Current trust radius                    ....  0.300
Evaluating the initial hessian          ....  (Almloef) done
Projecting the Hessian                  .... done
Diagonalizing the Hessian               .... done
Dimension of the hessian                .... 103
Lowest eigenvalues of the Hessian:
  0.006522598  0.013273843  0.016259193  0.018054832  0.020614380
Hessian has   0 negative eigenvalues
Taking P-RFO step
Searching for lambda that maximizes along the lowest mode
TS mode is mode number   0 with eigenvalue   0.00652260 and components:
   1.    0.00685048
   2.    0.42584870
   3.    0.42393766
   4.   -0.00000000
   5.    0.00000000
   6.    0.39062272
   7.    0.00081869
   8.   -0.00000000
   9.    0.01122450
  10.    0.42597319
  11.   -0.00116992
  12.    0.39289643
  13.   -0.00000000
  14.   -0.00000000
  15.    0.00207375
  16.   -0.00000000
  17.   -0.00247931
  18.    0.36027876
  19.   -0.00400907
  20.    0.01750457
  21.   -0.00429952
  22.    0.01852723
  23.   -0.00742188
  24.    0.00204170
  25.   -0.00157836
  26.    0.00708549
  27.   -0.00701469
  28.    0.01495249
  29.   -0.00176670
  30.    0.00234487
  31.    0.00972371
  32.   -0.00624913
  33.   -0.00062734
  34.   -0.00082873
  35.   -0.03245706
  36.   -0.03528155
  37.   -0.05769221
  38.    0.00000000
  39.    0.00110209
  40.   -0.00465682
  41.    0.01675433
  42.   -0.00184631
  43.   -0.00365743
  44.   -0.00265192
  45.   -0.00226092
  46.   -0.00177696
  47.    0.01201227
  48.    0.00128162
  49.   -0.00101821
  50.    0.00717925
  51.   -0.00042570
  52.    0.03476909
  53.    0.02990750
  54.    0.01031682
  55.   -0.00486159
  56.   -0.01455621
  57.    0.00062219
  58.    0.00088958
  59.   -0.00969462
  60.    0.04508590
  61.   -0.00880504
  62.    0.03565867
  63.    0.01088977
  64.   -0.00524782
  65.    0.00564195
  66.    0.01416634
  67.   -0.01088977
  68.    0.00970904
  69.    0.00158015
  70.    0.01436060
  71.    0.00177441
  72.   -0.00287715
  73.    0.01258619
  74.    0.00270172
  75.    0.00249810
  76.   -0.00133964
  77.   -0.00386018
  78.   -0.03017330
  79.   -0.00014179
  80.    0.01083805
  81.    0.01477071
  82.   -0.03410596
  83.   -0.00215805
  84.   -0.01845396
  85.   -0.00614728
  86.   -0.01228649
  87.    0.00002019
  88.   -0.01230668
  89.    0.01097983
  90.   -0.03396418
  91.   -0.00152109
  92.    0.00945875
  93.    0.01014863
  94.   -0.03548526
  95.    0.00379087
  96.    0.00723802
  97.    0.00651243
  98.    0.00038965
  99.   -0.00848674
 100.    0.01023148
 101.    0.00950589
 102.    0.00338310
 103.   -0.00549328

Lambda that maximizes along the TS mode:       0.00652434
Searching for lambda that minimizes along all other modes
In cycle   1: lambdaN =  -0.00016756   step =   0.00016756
In cycle   2: lambdaN =  -0.00016756   step =   0.00000000
Lambda that minimizes along all other modes:  -0.00016756
Calculated stepsize too large (   2.4431 >    0.3000). Scaled with    0.1228.
The final length of the internal step   ....       0.3000
Converting the step to cartesian space:
 Initial RMS(Int)=    0.0295598783
Transforming coordinates:
 Iter   0:  RMS(Cart)=    0.0340585839 RMS(Int)=    0.0212868381
 Iter   1:  RMS(Cart)=    0.0006401031 RMS(Int)=    0.0004394889
 Iter   2:  RMS(Cart)=    0.0000159668 RMS(Int)=    0.0000098797
 Iter   3:  RMS(Cart)=    0.0000006711 RMS(Int)=    0.0000004533
 Iter   4:  RMS(Cart)=    0.0000000239 RMS(Int)=    0.0000000146
done
Storing new coordinates                 .... done

                                .--------------------.
          ----------------------|Geometry convergence|-------------------------
          Item                value                   Tolerance       Converged
          ---------------------------------------------------------------------
          RMS gradient        0.0004720714            0.0001000000      NO
          MAX gradient        0.0037081945            0.0003000000      NO
          RMS step            0.0295598783            0.0020000000      NO
          MAX step            0.0368386938            0.0040000000      NO
          ........................................................
          Max(Bonds)      0.0195      Max(Angles)    2.11
          Max(Dihed)        2.11      Max(Improp)    0.00
          ---------------------------------------------------------------------

The optimization has not yet converged - more geometry cycles are needed


    ---------------------------------------------------------------------------
                         Redundant Internal Coordinates
                            (Angstroem and degrees)

        Definition                    Value    dE/dq     Step     New-Value  comp.(TS mode)
    ----------------------------------------------------------------------------
     1. B(C   1,C   0)                1.3796  0.000274  0.0195    1.3991   
     2. B(Cl  2,C   1)                3.2307  0.000306  0.0195    3.2502          0.43
     3. B(Cl  2,C   0)                2.5579  0.000101  0.0195    2.5774          0.42
     4. B(H   4,Cl  3)                1.6133 -0.001077  0.0006    1.6139   
     5. B(H   4,C   1)                1.3684  0.000834 -0.0004    1.3680   
     6. B(H   5,Cl  2)                2.5870 -0.000019  0.0195    2.6065          0.39
     7. B(H   5,C   0)                1.0834 -0.000360  0.0033    1.0867   
     8. B(H   6,C   1)                1.0933  0.000383 -0.0001    1.0932   
     9. B(C   7,C   0)                1.4911 -0.000107  0.0195    1.5106   
    10. B(C   7,Cl  2)                3.2306 -0.000019  0.0195    3.2501          0.43
    11. B(H   8,C   7)                1.0903  0.000179 -0.0047    1.0857   
    12. B(H   8,Cl  2)                2.8267 -0.000016  0.0195    2.8462          0.39
    13. B(H   9,C   7)                1.0934  0.000595 -0.0001    1.0933   
    14. B(H  10,C   7)                1.0953  0.000173 -0.0000    1.0953   
    15. B(N  11,C   1)                1.4357 -0.000763  0.0084    1.4441   
    16. B(H  12,N  11)                1.0123 -0.000328  0.0000    1.0124   
    17. B(H  13,N  11)                1.0149 -0.000835 -0.0097    1.0052   
    18. B(H  13,Cl  2)                2.7516  0.000016  0.0195    2.7711          0.36
    19. A(H   5,C   0,C   7)          117.65  0.000083   -1.74    115.91   
    20. A(C   1,C   0,Cl  2)          106.39  0.000018    2.11    108.50   
    21. A(C   1,C   0,H   5)          116.69 -0.000019   -1.86    114.83   
    22. A(Cl  2,C   0,C   7)          102.65 -0.000019    2.11    104.76   
    23. A(C   1,C   0,C   7)          121.73 -0.000051   -2.11    119.62   
    24. A(Cl  2,C   0,H   5)           79.35 -0.000013    0.88     80.23   
    25. A(Cl  2,C   1,H   6)          109.62 -0.000097   -0.68    108.93   
    26. A(Cl  2,C   1,H   4)          139.61  0.000527    2.11    141.72   
    27. A(C   0,C   1,H   4)           93.15  0.000600   -2.11     91.04   
    28. A(C   0,C   1,Cl  2)           49.43 -0.000040    2.11     51.54   
    29. A(H   4,C   1,H   6)          100.07 -0.000248   -0.76     99.31   
    30. A(Cl  2,C   1,N  11)           86.98 -0.000256    1.04     88.02   
    31. A(C   0,C   1,N  11)          120.81 -0.000121    2.11    122.92   
    32. A(H   4,C   1,N  11)          104.89 -0.000003   -2.11    102.78   
    33. A(C   0,C   1,H   6)          116.34 -0.000188   -0.25    116.09   
    34. A(H   6,C   1,N  11)          115.06  0.000104   -0.35    114.71   
    35. A(C   0,Cl  2,C   1)           24.18  0.000022   -2.11     22.07   
    36. A(C   0,Cl  2,C   7)           26.77 -0.000015   -2.11     24.65   
    37. A(C   1,Cl  2,C   7)           45.68 -0.000006   -2.11     43.57   
    38. A(C   1,H   4,Cl  3)          162.18 -0.003708    0.12    162.30   
    39. A(Cl  2,C   7,H   9)          121.34  0.000423    0.43    121.76   
    40. A(Cl  2,C   7,H   8)           58.93  0.000019   -1.99     56.94   
    41. A(C   0,C   7,Cl  2)           50.58  0.000034    2.11     52.69   
    42. A(H   9,C   7,H  10)          108.48 -0.000448   -0.78    107.70   
    43. A(H   8,C   7,H  10)          108.21 -0.000093   -1.57    106.64   
    44. A(C   0,C   7,H  10)          110.61  0.000227   -1.17    109.44   
    45. A(H   8,C   7,H   9)          109.01 -0.000141   -0.96    108.05   
    46. A(C   0,C   7,H   9)          111.27  0.000365   -0.76    110.51   
    47. A(C   0,C   7,H   8)          109.19  0.000072    2.11    111.30   
    48. A(Cl  2,C   7,H  10)          130.14  0.000043    0.58    130.72   
    49. A(H  12,N  11,H  13)          109.56 -0.000491   -0.44    109.12   
    50. A(C   1,N  11,H  13)          107.23  0.000448    2.11    109.34   
    51. A(C   1,N  11,H  12)          111.21  0.000900   -0.21    111.00   
    52. D(Cl  2,C   1,C   0,C   7)    116.76 -0.000043    2.11    118.87   
    53. D(H   6,C   1,C   0,C   7)     22.79 -0.000046    2.11     24.90   
    54. D(N  11,C   1,C   0,Cl  2)     53.76 -0.000358    2.11     55.87   
    55. D(H   6,C   1,C   0,Cl  2)    -93.97 -0.000003   -2.07    -96.04   
    56. D(H   6,C   1,C   0,H   5)    179.92  0.000008   -2.11    177.81   
    57. D(N  11,C   1,C   0,H   5)    -32.36 -0.000347    0.33    -32.03   
    58. D(H   4,C   1,C   0,Cl  2)    163.17 -0.000004    0.42    163.59   
    59. D(Cl  2,C   1,C   0,H   5)    -86.11  0.000011   -2.11    -88.22   
    60. D(N  11,C   1,C   0,C   7)    170.52 -0.000401    2.11    172.63   
    61. D(H   4,C   1,C   0,H   5)     77.06  0.000007   -2.11     74.95   
    62. D(H   4,C   1,C   0,C   7)    -80.07 -0.000047    2.11    -77.96   
    63. D(C   7,Cl  2,C   0,C   1)    128.89 -0.000061    2.11    131.00   
    64. D(C   1,Cl  2,C   0,H   5)    114.90 -0.000024   -2.11    112.79   
    65. D(C   7,Cl  2,C   0,H   5)   -116.21 -0.000085    2.11   -114.10   
    66. D(C   7,Cl  2,C   1,N  11)   -165.42 -0.000184    2.11   -163.30   
    67. D(C   1,Cl  2,C   0,C   7)   -128.89  0.000061   -2.11   -131.00   
    68. D(C   7,Cl  2,C   1,H   4)    -55.83 -0.000313    2.11    -53.72   
    69. D(C   0,Cl  2,C   1,N  11)   -136.08 -0.000170    0.73   -135.35   
    70. D(C   7,Cl  2,C   1,H   6)     79.03 -0.000190    2.11     81.14   
    71. D(C   0,Cl  2,C   1,H   6)    108.36 -0.000176    0.79    109.15   
    72. D(C   0,Cl  2,C   1,H   4)    -26.49 -0.000299   -1.17    -27.66   
    73. D(C   7,Cl  2,C   1,C   0)    -29.34 -0.000014    2.11    -27.23   
    74. D(Cl  3,H   4,C   1,Cl  2)   -132.07  0.000082    1.15   -130.92   
    75. D(Cl  3,H   4,C   1,N  11)    -28.86 -0.000052    1.10    -27.76   
    76. D(Cl  3,H   4,C   1,H   6)     90.63 -0.000040   -0.55     90.08   
    77. D(Cl  3,H   4,C   1,C   0)   -151.91 -0.000134   -1.62   -153.53   
    78. D(H   9,C   7,C   0,C   1)     -4.87  0.000308   -2.11     -6.98   
    79. D(H   8,C   7,C   0,Cl  2)     -6.64  0.000184   -0.14     -6.78   
    80. D(H   8,C   7,C   0,H   5)     77.84  0.000174    2.11     79.95   
    81. D(H   9,C   7,C   0,H   5)   -161.79  0.000276    2.11   -159.68   
    82. D(H   8,C   7,C   0,C   1)   -125.24  0.000206   -2.11   -127.36   
    83. D(H  10,C   7,Cl  2,C   1)    110.90  0.000406   -1.02    109.89   
    84. D(H   9,C   7,Cl  2,C   1)    -66.36 -0.000147   -2.11    -68.47   
    85. D(H   9,C   7,Cl  2,C   0)    -92.83 -0.000200   -2.11    -94.94   
    86. D(H   8,C   7,Cl  2,C   1)   -160.86  0.000260   -2.11   -162.97   
    87. D(H   8,C   7,Cl  2,C   0)    172.67  0.000207   -0.08    172.59   
    88. D(C   0,C   7,Cl  2,C   1)     26.47  0.000052   -2.11     24.36   
    89. D(Cl  2,C   7,C   0,H   5)     84.48 -0.000010    2.11     86.59   
[...]
      dxy     :     0.010147
  3 Cls       :     5.973523  s :     5.973523
      pz      :     3.959716  p :    11.608277
      px      :     3.688551
      py      :     3.960010
      dz2     :     0.011310  d :     0.057924
      dxz     :     0.011264
      dyz     :     0.009932
      dx2y2   :     0.014190
      dxy     :     0.011228
  4 H s       :     0.673059  s :     0.673059
  5 H s       :     0.737591  s :     0.737591
  6 H s       :     0.774905  s :     0.774905
  7 C s       :     3.340184  s :     3.340184
      pz      :     1.112550  p :     3.192376
      px      :     1.085473
      py      :     0.994353
      dz2     :     0.020172  d :     0.089073
      dxz     :     0.012962
      dyz     :     0.019852
      dx2y2   :     0.025825
      dxy     :     0.010262
  8 H s       :     0.743266  s :     0.743266
  9 H s       :     0.781061  s :     0.781061
 10 H s       :     0.772475  s :     0.772475
 11 N s       :     3.682336  s :     3.682336
      pz      :     1.692462  p :     4.099134
      px      :     1.244096
      py      :     1.162576
      dz2     :     0.008353  d :     0.056280
      dxz     :     0.012139
      dyz     :     0.011209
      dx2y2   :     0.006610
      dxy     :     0.017969
 12 H s       :     0.665400  s :     0.665400
 13 H s       :     0.629527  s :     0.629527


                     *******************************
                     * LOEWDIN POPULATION ANALYSIS *
                     *******************************

----------------------
LOEWDIN ATOMIC CHARGES
----------------------
   0 C :    0.033808
   1 C :   -0.244948
   2 Cl:   -0.760653
   3 Cl:   -0.536976
   4 H :    0.182754
   5 H :    0.127039
   6 H :    0.103313
   7 C :   -0.286395
   8 H :    0.125928
   9 H :    0.113083
  10 H :    0.119048
  11 N :   -0.371778
  12 H :    0.192439
  13 H :    0.203336

-------------------------------
LOEWDIN REDUCED ORBITAL CHARGES
-------------------------------
  0 C s       :     2.889331  s :     2.889331
      pz      :     1.107641  p :     2.899731
      px      :     0.700676
      py      :     1.091414
      dz2     :     0.044133  d :     0.177130
      dxz     :     0.037256
      dyz     :     0.053926
      dx2y2   :     0.026761
      dxy     :     0.015055
  1 C s       :     2.845496  s :     2.845496
      pz      :     1.066308  p :     3.183426
      px      :     1.098704
      py      :     1.018414
      dz2     :     0.064199  d :     0.216026
      dxz     :     0.024733
      dyz     :     0.065174
      dx2y2   :     0.039417
      dxy     :     0.022503
  2 Cls       :     5.940823  s :     5.940823
      pz      :     3.951300  p :    11.768157
      px      :     3.849582
      py      :     3.967276
      dz2     :     0.010088  d :     0.051672
      dxz     :     0.010675
      dyz     :     0.009870
      dx2y2   :     0.010778
      dxy     :     0.010261
  3 Cls       :     5.856177  s :     5.856177
      pz      :     3.960996  p :    11.621261
      px      :     3.699689
      py      :     3.960575
      dz2     :     0.011566  d :     0.059538
      dxz     :     0.011528
      dyz     :     0.009956
      dx2y2   :     0.014962
      dxy     :     0.011527
  4 H s       :     0.817246  s :     0.817246
  5 H s       :     0.872961  s :     0.872961
  6 H s       :     0.896687  s :     0.896687
  7 C s       :     2.883353  s :     2.883353
      pz      :     1.102570  p :     3.272361
      px      :     1.095322
      py      :     1.074469
      dz2     :     0.028369  d :     0.130681
      dxz     :     0.016705
      dyz     :     0.031856
      dx2y2   :     0.038568
      dxy     :     0.015183
  8 H s       :     0.874072  s :     0.874072
  9 H s       :     0.886917  s :     0.886917
 10 H s       :     0.880952  s :     0.880952
 11 N s       :     3.191165  s :     3.191165
      pz      :     1.640240  p :     4.106884
      px      :     1.255279
      py      :     1.211365
      dz2     :     0.009408  d :     0.073729
      dxz     :     0.014068
      dyz     :     0.015800
      dx2y2   :     0.010038
      dxy     :     0.024415
 12 H s       :     0.807561  s :     0.807561
 13 H s       :     0.796664  s :     0.796664


                      *****************************
                      * MAYER POPULATION ANALYSIS *
                      *****************************

  NA   - Mulliken gross atomic population
  ZA   - Total nuclear charge
  QA   - Mulliken gross atomic charge
  VA   - Mayer's total valence
  BVA  - Mayer's bonded valence
  FA   - Mayer's free valence

  ATOM       NA         ZA         QA         VA         BVA        FA
  0 C      6.0679     6.0000    -0.0679     3.7087     3.3773     0.3314
  1 C      6.2333     6.0000    -0.2333     3.6199     3.2805     0.3394
  2 Cl    17.8224    17.0000    -0.8224     0.6369     0.2222     0.4147
  3 Cl    17.6397    17.0000    -0.6397     0.8632     0.4585     0.4047
  4 H      0.6731     1.0000     0.3269     0.8390     0.7823     0.0568
  5 H      0.7376     1.0000     0.2624     0.8981     0.8604     0.0377
  6 H      0.7749     1.0000     0.2251     0.9252     0.8853     0.0400
  7 C      6.6216     6.0000    -0.6216     3.7893     3.5144     0.2748
  8 H      0.7433     1.0000     0.2567     0.9019     0.8649     0.0371
  9 H      0.7811     1.0000     0.2189     0.9177     0.8802     0.0375
 10 H      0.7725     1.0000     0.2275     0.9059     0.8659     0.0399
 11 N      7.8377     7.0000    -0.8377     2.7965     2.4604     0.3362
 12 H      0.6654     1.0000     0.3346     0.8554     0.8151     0.0403
 13 H      0.6295     1.0000     0.3705     0.8382     0.7987     0.0395

  Mayer bond orders larger than 0.1
B(  0-C ,  1-C ) :   1.3234 B(  0-C ,  2-Cl) :   0.2352 B(  0-C ,  5-H ) :   0.8875 
B(  0-C ,  7-C ) :   0.9014 B(  1-C ,  4-H ) :   0.3256 B(  1-C ,  6-H ) :   0.9088 
B(  1-C , 11-N ) :   0.8517 B(  3-Cl,  4-H ) :   0.4185 B(  7-C ,  8-H ) :   0.8936 
B(  7-C ,  9-H ) :   0.9109 B(  7-C , 10-H ) :   0.8829 B( 11-N , 12-H ) :   0.8164 
B( 11-N , 13-H ) :   0.7983 


                *******************************************
                * RELAXED MP2 DENSITY POPULATION ANALYSIS *
                *******************************************

------------------------------------------------------------------------------
                           ORCA POPULATION ANALYSIS
------------------------------------------------------------------------------
Input electron density              ... run.pmp2re
BaseName (.gbw .S,...)              ... run

                    ********************************
                    * MULLIKEN POPULATION ANALYSIS *
                    ********************************

-----------------------
MULLIKEN ATOMIC CHARGES
-----------------------
   0 C :   -0.119321
   1 C :   -0.221345
   2 Cl:   -0.775463
   3 Cl:   -0.579526
   4 H :    0.290161
   5 H :    0.241009
   6 H :    0.224187
   7 C :   -0.660867
   8 H :    0.257318
   9 H :    0.220791
  10 H :    0.225648
  11 N :   -0.792142
  12 H :    0.327384
  13 H :    0.362166
Sum of atomic charges:   -1.0000000

--------------------------------
MULLIKEN REDUCED ORBITAL CHARGES
--------------------------------
  0 C s       :     3.294850  s :     3.294850
      pz      :     0.918754  p :     2.734226
      px      :     0.803496
      py      :     1.011976
      dz2     :     0.020250  d :     0.090244
      dxz     :     0.018058
      dyz     :     0.027017
      dx2y2   :     0.015781
      dxy     :     0.009138
  1 C s       :     3.214540  s :     3.214540
      pz      :     0.886420  p :     2.898776
      px      :     1.029967
      py      :     0.982389
      dz2     :     0.026523  d :     0.108029
      dxz     :     0.016289
      dyz     :     0.033005
      dx2y2   :     0.020483
      dxy     :     0.011728
  2 Cls       :     5.979722  s :     5.979722
      pz      :     3.949491  p :    11.744884
      px      :     3.826834
      py      :     3.968559
      dz2     :     0.010001  d :     0.050856
      dxz     :     0.010407
      dyz     :     0.009818
      dx2y2   :     0.010474
      dxy     :     0.010156
  3 Cls       :     5.968328  s :     5.968328
      pz      :     3.955744  p :    11.553000
      px      :     3.642916
      py      :     3.954340
      dz2     :     0.011370  d :     0.058199
      dxz     :     0.011272
      dyz     :     0.009929
      dx2y2   :     0.014351
      dxy     :     0.011277
  4 H s       :     0.709839  s :     0.709839
  5 H s       :     0.758991  s :     0.758991
  6 H s       :     0.775813  s :     0.775813
  7 C s       :     3.328695  s :     3.328695
      pz      :     1.135270  p :     3.253830
      px      :     1.094637
      py      :     1.023923
      dz2     :     0.018032  d :     0.078343
      dxz     :     0.011584
      dyz     :     0.016648
      dx2y2   :     0.022425
      dxy     :     0.009655
  8 H s       :     0.742682  s :     0.742682
  9 H s       :     0.779209  s :     0.779209
 10 H s       :     0.774352  s :     0.774352
 11 N s       :     3.654801  s :     3.654801
      pz      :     1.682592  p :     4.085158
      px      :     1.242760
      py      :     1.159806
      dz2     :     0.008334  d :     0.052183
      dxz     :     0.011326
      dyz     :     0.010413
      dx2y2   :     0.006171
      dxy     :     0.015938
 12 H s       :     0.672616  s :     0.672616
 13 H s       :     0.637834  s :     0.637834


                     *******************************
                     * LOEWDIN POPULATION ANALYSIS *
                     *******************************

----------------------
LOEWDIN ATOMIC CHARGES
----------------------
   0 C :   -0.043570
   1 C :   -0.230299
   2 Cl:   -0.725051
   3 Cl:   -0.488688
   4 H :    0.171706
   5 H :    0.121022
   6 H :    0.109310
   7 C :   -0.319378
   8 H :    0.130813
   9 H :    0.117873
  10 H :    0.122300
  11 N :   -0.368111
  12 H :    0.195715
  13 H :    0.206358

-------------------------------
LOEWDIN REDUCED ORBITAL CHARGES
-------------------------------
  0 C s       :     2.884036  s :     2.884036
      pz      :     1.095472  p :     2.990607
      px      :     0.813342
      py      :     1.081793
      dz2     :     0.044031  d :     0.168927
      dxz     :     0.032807
      dyz     :     0.051940
      dx2y2   :     0.025037
      dxy     :     0.015113
  1 C s       :     2.852377  s :     2.852377
      pz      :     1.086768  p :     3.167914
      px      :     1.056915
      py      :     1.024231
      dz2     :     0.059675  d :     0.210008
      dxz     :     0.026896
      dyz     :     0.064077
      dx2y2   :     0.037453
      dxy     :     0.021907
  2 Cls       :     5.942369  s :     5.942369
      pz      :     3.944352  p :    11.730844
      px      :     3.821750
      py      :     3.964742
      dz2     :     0.010100  d :     0.051837
      dxz     :     0.010732
      dyz     :     0.009877
      dx2y2   :     0.010854
      dxy     :     0.010275
  3 Cls       :     5.856981  s :     5.856981
      pz      :     3.958278  p :    11.571864
      px      :     3.657072
      py      :     3.956515
      dz2     :     0.011627  d :     0.059843
      dxz     :     0.011545
      dyz     :     0.009954
      dx2y2   :     0.015128
      dxy     :     0.011589
  4 H s       :     0.828294  s :     0.828294
  5 H s       :     0.878978  s :     0.878978
  6 H s       :     0.890690  s :     0.890690
  7 C s       :     2.886370  s :     2.886370
      pz      :     1.116117  p :     3.312397
      px      :     1.104492
      py      :     1.091787
      dz2     :     0.026458  d :     0.120611
      dxz     :     0.015561
      dyz     :     0.028279
      dx2y2   :     0.035312
      dxy     :     0.015001
  8 H s       :     0.869187  s :     0.869187
  9 H s       :     0.882127  s :     0.882127
 10 H s       :     0.877700  s :     0.877700
 11 N s       :     3.190841  s :     3.190841
      pz      :     1.633718  p :     4.107333
      px      :     1.258849
      py      :     1.214766
      dz2     :     0.009445  d :     0.069937
      dxz     :     0.013311
      dyz     :     0.015121
      dx2y2   :     0.009553
      dxy     :     0.022508
 12 H s       :     0.804285  s :     0.804285
 13 H s       :     0.793642  s :     0.793642


                      *****************************
                      * MAYER POPULATION ANALYSIS *
                      *****************************

  NA   - Mulliken gross atomic population
  ZA   - Total nuclear charge
  QA   - Mulliken gross atomic charge
  VA   - Mayer's total valence
  BVA  - Mayer's bonded valence
  FA   - Mayer's free valence

  ATOM       NA         ZA         QA         VA         BVA        FA
  0 C      6.1193     6.0000    -0.1193     3.8255     3.5254     0.3001
  1 C      6.2213     6.0000    -0.2213     3.7339     3.4124     0.3215
  2 Cl    17.7755    17.0000    -0.7755     0.7149     0.3093     0.4057
  3 Cl    17.5795    17.0000    -0.5795     0.9458     0.5506     0.3952
  4 H      0.7098     1.0000     0.2902     0.8627     0.8078     0.0550
  5 H      0.7590     1.0000     0.2410     0.9116     0.8754     0.0362
  6 H      0.7758     1.0000     0.2242     0.9247     0.8856     0.0390
  7 C      6.6609     6.0000    -0.6609     3.8119     3.5410     0.2709
  8 H      0.7427     1.0000     0.2573     0.9030     0.8667     0.0363
  9 H      0.7792     1.0000     0.2208     0.9154     0.8786     0.0368
 10 H      0.7744     1.0000     0.2256     0.9054     0.8666     0.0388
 11 N      7.7921     7.0000    -0.7921     2.8690     2.5381     0.3309
 12 H      0.6726     1.0000     0.3274     0.8604     0.8207     0.0397
 13 H      0.6378     1.0000     0.3622     0.8494     0.8108     0.0386

  Mayer bond orders larger than 0.1
B(  0-C ,  1-C ) :   1.3859 B(  0-C ,  2-Cl) :   0.2527 B(  0-C ,  5-H ) :   0.8910 
B(  0-C ,  7-C ) :   0.9206 B(  1-C ,  4-H ) :   0.3016 B(  1-C ,  6-H ) :   0.8969 
B(  1-C , 11-N ) :   0.9051 B(  3-Cl,  4-H ) :   0.4609 B(  7-C ,  8-H ) :   0.8882 
B(  7-C ,  9-H ) :   0.9058 B(  7-C , 10-H ) :   0.8780 B( 11-N , 12-H ) :   0.8147 
B( 11-N , 13-H ) :   0.7971 


----------------------------------
MP2 DERIVATIVE INTEGRAL GENERATION
----------------------------------


Input Wavefunction Amplitudes       ... run.mp2tsaa.tmp.proc0
Input Correlated Electron Density   ... run.pmp2re
Input Energy Weighted Density       ... run.wmp2.tmp
Input SCF Electron Density          ... run.scfp.tmp

One-Electron Terms    ...
                        ... One-Electron Terms done
Prescreening matrices              ... done

Batch handling in the gradient evaluation:
Memory available                      ... 5000.0 MB
Memory per occupied orbital in Q2     ...    5.7 MB
Memory per occupied orbital in Q3     ...    0.0 MB
Total memory requirement per |i>      ...    5.7 MB
Max. Number of orbitals possible      ...    875
Number of orbitals treated per batch  ...     34
Number of batches to be done          ...      1
Batch   0: i=    0 ...    33

---------------------------------------
MP2 TOTAL ENERGY:    -1092.818009905 Eh
---------------------------------------

-----------------------------------
NORM OF THE MP2 GRADIENT:  0.000338
-----------------------------------

-------------------------   --------------------
FINAL SINGLE POINT ENERGY     -1092.818009905428
-------------------------   --------------------

                                *** OPTIMIZATION RUN DONE ***

                            ***************************************
                            *     ORCA property calculations      *
                            ***************************************

                                    ---------------------
                                    Active property flags
                                    ---------------------
   (+) Dipole Moment


------------------------------------------------------------------------------
                       ORCA ELECTRIC PROPERTIES CALCULATION
------------------------------------------------------------------------------

Dipole Moment Calculation                       ... on
Quadrupole Moment Calculation                   ... off
Polarizability Calculation                      ... off
GBWName                                         ... run.gbw
Electron density file                           ... run.scfp.tmp
The origin for moment calculation is the CENTER OF MASS  = (-0.701684,  0.212706  0.740989)

-------------
DIPOLE MOMENT
-------------
                                X             Y             Z
Electronic contribution:     -0.69895       2.66288       0.57675
Nuclear contribution   :     -0.55554      -3.05580      -0.63855
                        -----------------------------------------
Total Dipole Moment    :     -1.25449      -0.39292      -0.06180
                        -----------------------------------------
Magnitude (a.u.)       :      1.31603
Magnitude (Debye)      :      3.34509


                         *** MP2 UNRELAXED DENSITY ***

------------------------------------------------------------------------------
                       ORCA ELECTRIC PROPERTIES CALCULATION
------------------------------------------------------------------------------

Dipole Moment Calculation                       ... on
Quadrupole Moment Calculation                   ... off
Polarizability Calculation                      ... off
GBWName                                         ... run.gbw
Electron density file                           ... run.pmp2ur
The origin for moment calculation is the CENTER OF MASS  = (-0.701684,  0.212706  0.740989)

-------------
DIPOLE MOMENT
-------------
                                X             Y             Z
Electronic contribution:     -0.69640       2.67306       0.60172
Nuclear contribution   :     -0.55554      -3.05580      -0.63855
                        -----------------------------------------
Total Dipole Moment    :     -1.25194      -0.38274      -0.03683
                        -----------------------------------------
Magnitude (a.u.)       :      1.30966
Magnitude (Debye)      :      3.32889


                           *** MP2 RELAXED DENSITY ***

------------------------------------------------------------------------------
                       ORCA ELECTRIC PROPERTIES CALCULATION
------------------------------------------------------------------------------

Dipole Moment Calculation                       ... on
Quadrupole Moment Calculation                   ... off
Polarizability Calculation                      ... off
GBWName                                         ... run.gbw
Electron density file                           ... run.pmp2re
The origin for moment calculation is the CENTER OF MASS  = (-0.701684,  0.212706  0.740989)

-------------
DIPOLE MOMENT
-------------
                                X             Y             Z
Electronic contribution:     -0.76489       2.78041       0.80629
Nuclear contribution   :     -0.55554      -3.05580      -0.63855
                        -----------------------------------------
Total Dipole Moment    :     -1.32043      -0.27539       0.16774
                        -----------------------------------------
Magnitude (a.u.)       :      1.35924
Magnitude (Debye)      :      3.45490


Timings for individual modules:

Sum of individual times         ...     5552.518 sec (=  92.542 min)
GTO integral calculation        ...       11.530 sec (=   0.192 min)   0.2 %
SCF iterations                  ...     2036.074 sec (=  33.935 min)  36.7 %
MP2 module                      ...     3499.437 sec (=  58.324 min)  63.0 %
Geometry relaxation             ...        5.476 sec (=   0.091 min)   0.1 %
                             ****ORCA TERMINATED NORMALLY****
TOTAL RUN TIME: 0 days 1 hours 32 minutes 36 seconds 995 msec
