
                                 *****************
                                 * O   R   C   A *
                                 *****************

           --- An Ab Initio, DFT and Semiempirical electronic structure package ---

                  #######################################################
                  #                        -***-                        #
                  #  Department of molecular theory and spectroscopy    #
                  #              Directorship: Frank Neese              #
                  # Max Planck Institute for Chemical Energy Conversion #
                  #                  D-45470 Muelheim/Ruhr              #
                  #                       Germany                       #
                  #                                                     #
                  #                  All rights reserved                #
                  #                        -***-                        #
                  #######################################################


                         Program Version 4.0.1.2 - RELEASE -


 With contributions from (in alphabetic order):
   Daniel Aravena         : Magnetic Properties
   Michael Atanasov       : Ab Initio Ligand Field Theory
   Ute Becker             : Parallelization
   Martin Brehm           : Molecular dynamics
   Dmytro Bykov           : SCF Hessian
   Vijay G. Chilkuri      : MRCI spin determinant printing
   Dipayan Datta          : RHF DLPNO-CCSD density
   Achintya Kumar Dutta   : EOM-CC, STEOM-CC
   Dmitry Ganyushin       : Spin-Orbit,Spin-Spin,Magnetic field MRCI
   Yang Guo               : DLPNO-NEVPT2, CIM, IAO-localization
   Andreas Hansen         : Spin unrestricted coupled pair/coupled cluster methods
   Lee Huntington         : MR-EOM, pCC
   Robert Izsak           : Overlap fitted RIJCOSX, COSX-SCS-MP3, EOM
   Christian Kollmar      : KDIIS, OOCD, Brueckner-CCSD(T), CCSD density
   Simone Kossmann        : Meta GGA functionals, TD-DFT gradient, OOMP2, MP2 Hessian
   Martin Krupicka        : AUTO-CI
   Dagmar Lenk            : GEPOL surface
   Dimitrios Liakos       : Extrapolation schemes; parallel MDCI
   Dimitrios Manganas     : ROCIS; embedding schemes
   Dimitrios Pantazis     : SARC Basis sets
   Taras Petrenko         : DFT Hessian,TD-DFT gradient, ASA, ECA, R-Raman, ABS, FL, XAS/XES, NRVS
   Peter Pinski           : DLPNO-MP2
   Christoph Reimann      : Effective Core Potentials
   Marius Retegan         : Local ZFS, SOC
   Christoph Riplinger    : Optimizer, TS searches, QM/MM, DLPNO-CCSD(T), (RO)-DLPNO pert. Triples
   Tobias Risthaus        : Range-separated hybrids, TD-DFT gradient, RPA, STAB
   Michael Roemelt        : Restricted open shell CIS
   Masaaki Saitow         : Open-shell DLPNO
   Barbara Sandhoefer     : DKH picture change effects
   Kantharuban Sivalingam : CASSCF convergence, NEVPT2, FIC-MRCI
   Georgi Stoychev        : AutoAux
   Boris Wezisla          : Elementary symmetry handling
   Frank Wennmohs         : Technical directorship


 We gratefully acknowledge several colleagues who have allowed us to
 interface, adapt or use parts of their codes:
   Stefan Grimme, W. Hujo, H. Kruse,             : VdW corrections, initial TS optimization,
                  C. Bannwarth                     DFT functionals, gCP, sTDA/sTD-DF
   Ed Valeev                                     : LibInt (2-el integral package), F12 methods
   Garnet Chan, S. Sharma, J. Yang, R. Olivares  : DMRG
   Ulf Ekstrom                                   : XCFun DFT Library
   Mihaly Kallay                                 : mrcc  (arbitrary order and MRCC methods)
   Andreas Klamt, Michael Diedenhofen            : otool_cosmo (COSMO solvation model)
   Jiri Pittner, Ondrej Demel                    : Mk-CCSD
   Frank Weinhold                                : gennbo (NPA and NBO analysis)
   Christopher J. Cramer and Donald G. Truhlar   : smd solvation model


 Your calculation uses the libint2 library for the computation of 2-el integrals
 For citations please refer to: http://libint.valeyev.net

 This ORCA versions uses:
   CBLAS   interface :  Fast vector & matrix operations
   LAPACKE interface :  Fast linear algebra routines
   SCALAPACK package :  Parallel linear algebra routines




*****************************************
The coordinations will be read from file: inp.xyz
*****************************************


Your calculation utilizes the basis: 6-311G(d)
   H, Li - Ne  : R. Krishnan, J. S. Binkley, R. Seeger and J. A. Pople, J. Chem. Phys. 72, 650 (1980).
   Na - Ar     : A. D. McLean and G. S. Chandler J. Chem. Phys. 72, 5639, (1980).
   K  - Ca     : J.-P. Blaudeau, M. P. McGrath, L. A. Curtiss and L. Radom, J. Chem. Phys. 107, 5016 (1997).
   Ga - Kr     : L. A. Curtiss, M. P. McGrath, J.-P. Blandeau, N. E. Davis, R. C. Binning and L. Radom, J. Chem. Phys. 103, 6104 (1995).
   Pol./Diff.
   H, Li - Cl  : T. Clark, J. Chandrasekhar and P. v. R. Schleyer, J. Comp. Chem. 4, 294 (1983).
   H - Ne      : M. J. Frisch, J. A. Pople and J. S. Binkley, J. Chem. Phys. 80, 3265 (1984).

================================================================================
                                        WARNINGS
                       Please study these warnings very carefully!
================================================================================

WARNING: Gradients needed for Numerical Frequencies
  ===> : Setting RunTyp to EnGrad
Warning: TCutStore was < 0. Adjusted to Thresh (uncritical)

WARNING: Post HF methods need fully converged wavefunctions
  ===> : Setting SCFConvForced true
         You can overwrite this default with %scf ConvForced false 


INFO   : the flag for use of LIBINT has been found!

================================================================================
                                       INPUT FILE
================================================================================
NAME = run.inp
|  1> ! MP2 6-311G(d) NoFrozenCore ExtremeSCF NumFreq
|  2> 
|  3> %pal nprocs 1
|  4> end
|  5> 
|  6> %mp2 MaxCore 5000
|  7> end
|  8> 
|  9> %freq 
| 10> restart true
| 11> end
| 12> 
| 13> %geom
| 14> Calc_Hess true
| 15> NumHess true
| 16> end
| 17> 
| 18> *xyzfile 0 1 inp.xyz
| 19> 
| 20>                          ****END OF INPUT****
================================================================================

                     *******************************
                     * Energy+Gradient Calculation *
                     *******************************

---------------------------------
CARTESIAN COORDINATES (ANGSTROEM)
---------------------------------
  C     -0.194605   -0.517835   -0.136039
  C      0.082153   -0.221122    1.144140
  H      0.186475    0.133785   -0.922910
  H     -0.283225   -0.866511    1.941282
  C     -0.977499   -1.726625   -0.555292
  H     -0.375788   -2.404173   -1.169393
  H     -1.323239   -2.289286    0.315547
  H     -1.856675   -1.452891   -1.146668
  N      0.909264    0.816563    1.595555
  H      0.580671    1.243389    2.448571
  H      1.079080    1.518457    0.889413

----------------------------
CARTESIAN COORDINATES (A.U.)
----------------------------
  NO LB      ZA    FRAG     MASS         X           Y           Z
   0 C     6.0000    0    12.011   -0.367750   -0.978567   -0.257077
   1 C     6.0000    0    12.011    0.155247   -0.417860    2.162111
   2 H     1.0000    0     1.008    0.352386    0.252818   -1.744047
   3 H     1.0000    0     1.008   -0.535217   -1.637469    3.668492
   4 C     6.0000    0    12.011   -1.847205   -3.262849   -1.049349
   5 H     1.0000    0     1.008   -0.710137   -4.543228   -2.209832
   6 H     1.0000    0     1.008   -2.500559   -4.326123    0.596298
   7 H     1.0000    0     1.008   -3.508608   -2.745565   -2.166889
   8 N     7.0000    0    14.007    1.718261    1.543081    3.015162
   9 H     1.0000    0     1.008    1.097309    2.349664    4.627128
  10 H     1.0000    0     1.008    2.039166    2.869467    1.680746

--------------------------------
INTERNAL COORDINATES (ANGSTROEM)
--------------------------------
 C      0   0   0     0.000000000000     0.00000000     0.00000000
 C      1   0   0     1.342941327491     0.00000000     0.00000000
 H      1   2   0     1.090411207529   118.93688861     0.00000000
 H      2   1   3     1.088790423297   119.85430829   180.55280425
 C      1   2   3     1.499955918265   123.50880858   178.38100790
 H      5   1   2     1.094644390471   111.63642257   242.76414443
 H      5   1   2     1.092924405677   110.93368890     2.75531009
 H      5   1   2     1.094353037770   111.64058888   122.97591965
 N      2   1   3     1.401670642215   126.31186918   355.22474448
 H      9   2   1     1.008855386275   113.16141579   144.01059566
 H      9   2   1     1.010014191173   112.86273934    17.44381863

---------------------------
INTERNAL COORDINATES (A.U.)
---------------------------
 C      0   0   0     0.000000000000     0.00000000     0.00000000
 C      1   0   0     2.537791322883     0.00000000     0.00000000
 H      1   2   0     2.060578555589   118.93688861     0.00000000
 H      2   1   3     2.057515717268   119.85430829   180.55280425
 C      1   2   3     2.834505898476   123.50880858   178.38100790
 H      5   1   2     2.068578112023   111.63642257   242.76414443
 H      5   1   2     2.065327811808   110.93368890     2.75531009
 H      5   1   2     2.068027535209   111.64058888   122.97591965
 N      2   1   3     2.648773643744   126.31186918   355.22474448
 H      9   2   1     1.906460388790   113.16141579   144.01059566
 H      9   2   1     1.908650212691   112.86273934    17.44381863

---------------------
BASIS SET INFORMATION
---------------------
There are 3 groups of distinct atoms

 Group   1 Type C   : 11s5p1d contracted to 4s3p1d pattern {6311/311/1}
 Group   2 Type H   : 5s contracted to 3s pattern {311}
 Group   3 Type N   : 11s5p1d contracted to 4s3p1d pattern {6311/311/1}

Atom   0C    basis set group =>   1
Atom   1C    basis set group =>   1
Atom   2H    basis set group =>   2
Atom   3H    basis set group =>   2
Atom   4C    basis set group =>   1
Atom   5H    basis set group =>   2
Atom   6H    basis set group =>   2
Atom   7H    basis set group =>   2
Atom   8N    basis set group =>   3
Atom   9H    basis set group =>   2
Atom  10H    basis set group =>   2
------------------------------------------------------------------------------
                           ORCA GTO INTEGRAL CALCULATION
------------------------------------------------------------------------------

                         BASIS SET STATISTICS AND STARTUP INFO

 # of primitive gaussian shells          ...  103
 # of primitive gaussian functions       ...  159
 # of contracted shells                  ...   53
 # of contracted basis functions         ...   93
 Highest angular momentum                ...    2
 Maximum contraction depth               ...    6
 Integral package used                   ... LIBINT
 Integral threshhold            Thresh   ...  2.500e-11
 Primitive cut-off              TCut     ...  2.500e-12


------------------------------ INTEGRAL EVALUATION ----------------------------


 * One electron integrals 
 Pre-screening matrix                    ... done
 Shell pair data                         ... done (   0.001 sec)

-------------------------------------------------------------------------------
                                 ORCA SCF
-------------------------------------------------------------------------------

------------
SCF SETTINGS
------------
Hamiltonian:
 Ab initio Hamiltonian  Method          .... Hartree-Fock(GTOs)


General Settings:
 Integral files         IntName         .... run
 Hartree-Fock type      HFTyp           .... RHF
 Total Charge           Charge          ....    0
 Multiplicity           Mult            ....    1
 Number of Electrons    NEL             ....   32
 Basis Dimension        Dim             ....   93
 Nuclear Repulsion      ENuc            ....    116.7628559104 Eh

Convergence Acceleration:
 DIIS                   CNVDIIS         .... on
   Start iteration      DIISMaxIt       ....    12
   Startup error        DIISStart       ....  0.200000
   # of expansion vecs  DIISMaxEq       ....     5
   Bias factor          DIISBfac        ....   1.050
   Max. coefficient     DIISMaxC        ....  10.000
 Newton-Raphson         CNVNR           .... off
 SOSCF                  CNVSOSCF        .... on
   Start iteration      SOSCFMaxIt      ....   150
   Startup grad/error   SOSCFStart      ....  0.003300
 Level Shifting         CNVShift        .... on
   Level shift para.    LevelShift      ....    0.2500
   Turn off err/grad.   ShiftErr        ....    0.0010
 Zerner damping         CNVZerner       .... off
 Static damping         CNVDamp         .... on
   Fraction old density DampFac         ....    0.7000
   Max. Damping (<1)    DampMax         ....    0.9800
   Min. Damping (>=0)   DampMin         ....    0.0000
   Turn off err/grad.   DampErr         ....    0.1000
 Fernandez-Rico         CNVRico         .... off

SCF Procedure:
 Maximum # iterations   MaxIter         ....   125
 SCF integral mode      SCFMode         .... Direct
   Integral package                     .... LIBINT
 Reset frequeny         DirectResetFreq ....    20
 Integral Threshold     Thresh          ....  2.500e-11 Eh
 Primitive CutOff       TCut            ....  2.500e-12 Eh

Convergence Tolerance:
 Convergence Check Mode ConvCheckMode   .... Total+1el-Energy
 Convergence forced     ConvForced      .... 1
 Energy Change          TolE            ....  1.000e-08 Eh
 1-El. energy change                    ....  1.000e-05 Eh
 Orbital Gradient       TolG            ....  1.000e-05
 Orbital Rotation angle TolX            ....  1.000e-05
 DIIS Error             TolErr          ....  5.000e-07


Diagonalization of the overlap matrix:
Smallest eigenvalue                        ... 2.094e-03
Time for diagonalization                   ...    0.002 sec
Threshold for overlap eigenvalues          ... 1.000e-08
Number of eigenvalues below threshold      ... 0
Time for construction of square roots      ...    0.000 sec
Total time needed                          ...    0.002 sec

-------------------
DFT GRID GENERATION
-------------------

General Integration Accuracy     IntAcc      ...  4.340
Radial Grid Type                 RadialGrid  ... Gauss-Chebyshev
Angular Grid (max. acc.)         AngularGrid ... Lebedev-110
Angular grid pruning method      GridPruning ... 3 (G Style)
Weight generation scheme         WeightScheme... Becke
Basis function cutoff            BFCut       ...    1.0000e-11
Integration weight cutoff        WCut        ...    1.0000e-14
Grids for H and He will be reduced by one unit

# of grid points (after initial pruning)     ...  12228 (   0.0 sec)
# of grid points (after weights+screening)   ...  11635 (   0.0 sec)
nearest neighbour list constructed           ...    0.0 sec
Grid point re-assignment to atoms done       ...    0.0 sec
Grid point division into batches done        ...    0.0 sec
Reduced shell lists constructed in    0.2 sec

Total number of grid points                  ...    11635
Total number of batches                      ...      187
Average number of points per batch           ...       62
Average number of grid points per atom       ...     1058
Average number of shells per batch           ...    41.25 (77.83%)
Average number of basis functions per batch  ...    73.57 (79.11%)
Average number of large shells per batch     ...    33.82 (81.99%)
Average number of large basis fcns per batch ...    61.53 (83.64%)
Maximum spatial batch extension              ...  20.05, 23.38, 20.05 au
Average spatial batch extension              ...   4.17,  4.14,  4.08 au

Time for grid setup =    0.180 sec

------------------------------
INITIAL GUESS: MODEL POTENTIAL
------------------------------
Loading Hartree-Fock densities                     ... done
Calculating cut-offs                               ... done
Setting up the integral package                    ... done
Initializing the effective Hamiltonian             ... done
Starting the Coulomb interaction                   ... done (   0.1 sec)
Reading the grid                                   ... done
Mapping shells                                     ... done
Starting the XC term evaluation                    ... done (   0.2 sec)
Transforming the Hamiltonian                       ... done (   0.0 sec)
Diagonalizing the Hamiltonian                      ... done (   0.0 sec)
Back transforming the eigenvectors                 ... done (   0.0 sec)
Now organizing SCF variables                       ... done
                      ------------------
                      INITIAL GUESS DONE (   0.5 sec)
                      ------------------
--------------
SCF ITERATIONS
--------------
ITER       Energy         Delta-E        Max-DP      RMS-DP      [F,P]     Damp
               ***  Starting incremental Fock matrix formation  ***
  0   -171.8691048070   0.000000000000 0.05311276  0.00199542  0.3246931 0.7000
  1   -171.9633851448  -0.094280337767 0.03910325  0.00152973  0.2040467 0.7000
                               ***Turning on DIIS***
  2   -172.0198482128  -0.056463068039 0.02297263  0.00095610  0.1197368 0.7000
  3   -172.6213986963  -0.601550483440 0.02966385  0.00172362  0.0702433 0.0000
  4   -172.0982092383   0.523189457932 0.00844777  0.00038237  0.0086869 0.0000
                      *** Initiating the SOSCF procedure ***
                           *** Shutting down DIIS ***
                      *** Re-Reading the Fockian *** 
                      *** Removing any level shift *** 
ITER      Energy       Delta-E        Grad      Rot      Max-DP    RMS-DP
  5   -172.13911678  -0.0409075453  0.002550  0.002550  0.002930  0.000164
               *** Restarting incremental Fock matrix formation ***
  6   -172.13344076   0.0056760250  0.001081  0.001593  0.001537  0.000084
  7   -172.13345918  -0.0000184170  0.000424  0.001096  0.000904  0.000056
  8   -172.13346328  -0.0000041055  0.000036  0.000092  0.000087  0.000005
  9   -172.13346334  -0.0000000633  0.000030  0.000115  0.000076  0.000004
 10   -172.13346336  -0.0000000167  0.000007  0.000011  0.000016  0.000001
 11   -172.13346336  -0.0000000015  0.000003  0.000003  0.000005  0.000000
                  ***Gradient check signals convergence***
              ***Rediagonalizing the Fockian in SOSCF/NRSCF***

               *****************************************************
               *                     SUCCESS                       *
               *           SCF CONVERGED AFTER  12 CYCLES          *
               *****************************************************


----------------
TOTAL SCF ENERGY
----------------

Total Energy       :         -172.13346336 Eh           -4683.98967 eV

Components:
Nuclear Repulsion  :          116.76285591 Eh            3177.27884 eV
Electronic Energy  :         -288.89631927 Eh           -7861.26851 eV
One Electron Energy:         -463.02911560 Eh          -12599.66279 eV
Two Electron Energy:          174.13279633 Eh            4738.39428 eV

Virial components:
Potential Energy   :         -344.15204577 Eh           -9364.85327 eV
Kinetic Energy     :          172.01858241 Eh            4680.86360 eV
Virial Ratio       :            2.00066784


---------------
SCF CONVERGENCE
---------------

  Last Energy change         ...    3.0133e-10  Tolerance :   1.0000e-08
  Last MAX-Density change    ...    2.0553e-06  Tolerance :   1.0000e-07
  Last RMS-Density change    ...    1.1512e-07  Tolerance :   5.0000e-09
  Last Orbital Gradient      ...    9.9094e-07  Tolerance :   1.0000e-05
  Last Orbital Rotation      ...    3.1744e-06  Tolerance :   1.0000e-05

             **** THE GBW FILE WAS UPDATED (run.gbw) ****
             **** DENSITY FILE WAS UPDATED (run.scfp.tmp) ****
             **** ENERGY FILE WAS UPDATED (run.en.tmp) ****
----------------
ORBITAL ENERGIES
----------------

  NO   OCC          E(Eh)            E(eV) 
   0   2.0000     -15.551879      -423.1881 
   1   2.0000     -11.257320      -306.3273 
   2   2.0000     -11.213667      -305.1394 
   3   2.0000     -11.206652      -304.9485 
   4   2.0000      -1.202304       -32.7164 
   5   2.0000      -1.034627       -28.1536 
   6   2.0000      -0.903442       -24.5839 
   7   2.0000      -0.768507       -20.9121 
   8   2.0000      -0.674913       -18.3653 
   9   2.0000      -0.644398       -17.5350 
  10   2.0000      -0.559931       -15.2365 
  11   2.0000      -0.556066       -15.1313 
  12   2.0000      -0.530549       -14.4370 
  13   2.0000      -0.495740       -13.4898 
  14   2.0000      -0.477853       -13.0031 
  15   2.0000      -0.303924        -8.2702 
  16   0.0000       0.161390         4.3916 
  17   0.0000       0.171664         4.6712 
  18   0.0000       0.177400         4.8273 
  19   0.0000       0.200751         5.4627 
  20   0.0000       0.229778         6.2526 
  21   0.0000       0.239596         6.5197 
  22   0.0000       0.242028         6.5859 
  23   0.0000       0.270619         7.3639 
  24   0.0000       0.393922        10.7192 
  25   0.0000       0.437008        11.8916 
  26   0.0000       0.455869        12.4048 
  27   0.0000       0.467208        12.7134 
  28   0.0000       0.514520        14.0008 
  29   0.0000       0.525353        14.2956 
  30   0.0000       0.591273        16.0894 
  31   0.0000       0.613552        16.6956 
  32   0.0000       0.629664        17.1340 
  33   0.0000       0.661182        17.9917 
  34   0.0000       0.691123        18.8064 
  35   0.0000       0.738985        20.1088 
  36   0.0000       0.757854        20.6223 
  37   0.0000       0.788885        21.4667 
  38   0.0000       0.806730        21.9523 
  39   0.0000       0.811624        22.0854 
  40   0.0000       0.855837        23.2885 
  41   0.0000       0.876807        23.8591 
  42   0.0000       0.880768        23.9669 
  43   0.0000       0.918252        24.9869 
  44   0.0000       0.963327        26.2135 
  45   0.0000       1.010394        27.4942 
  46   0.0000       1.049730        28.5646 
  47   0.0000       1.102843        30.0099 
  48   0.0000       1.121307        30.5123 
  49   0.0000       1.350315        36.7439 
  50   0.0000       1.405729        38.2518 
  51   0.0000       1.467285        39.9268 
  52   0.0000       1.621592        44.1258 
  53   0.0000       1.641205        44.6595 
  54   0.0000       1.725808        46.9616 
  55   0.0000       1.777503        48.3683 
  56   0.0000       1.789430        48.6929 
  57   0.0000       1.876818        51.0708 
  58   0.0000       1.936584        52.6971 
  59   0.0000       2.004737        54.5517 
  60   0.0000       2.014473        54.8166 
  61   0.0000       2.210355        60.1468 
  62   0.0000       2.237638        60.8892 
  63   0.0000       2.288231        62.2659 
  64   0.0000       2.301224        62.6195 
  65   0.0000       2.365785        64.3763 
  66   0.0000       2.460603        66.9564 
  67   0.0000       2.536175        69.0128 
  68   0.0000       2.650574        72.1258 
  69   0.0000       2.706984        73.6608 
  70   0.0000       2.780629        75.6648 
  71   0.0000       2.805817        76.3502 
  72   0.0000       2.845030        77.4172 
  73   0.0000       2.937959        79.9459 
  74   0.0000       3.044628        82.8485 
  75   0.0000       3.090737        84.1032 
  76   0.0000       3.183912        86.6386 
  77   0.0000       3.266758        88.8930 
  78   0.0000       3.359993        91.4300 
  79   0.0000       3.481801        94.7446 
  80   0.0000       3.541721        96.3751 
  81   0.0000       3.595581        97.8407 
  82   0.0000       3.689491       100.3961 
  83   0.0000       3.714456       101.0755 
  84   0.0000       3.954782       107.6151 
  85   0.0000       4.264947       116.0551 
  86   0.0000       4.397994       119.6755 
  87   0.0000       4.587158       124.8229 
  88   0.0000       5.123144       139.4078 
  89   0.0000      24.506989       666.8691 
  90   0.0000      24.809256       675.0942 
  91   0.0000      25.341723       689.5833 
  92   0.0000      36.844025      1002.5769 

                    ********************************
                    * MULLIKEN POPULATION ANALYSIS *
                    ********************************

-----------------------
MULLIKEN ATOMIC CHARGES
-----------------------
   0 C :   -0.306983
   1 C :    0.045564
   2 H :    0.191897
   3 H :    0.212971
   4 C :   -0.614453
   5 H :    0.207382
   6 H :    0.203371
   7 H :    0.204406
   8 N :   -0.825149
   9 H :    0.338264
  10 H :    0.342731
Sum of atomic charges:   -0.0000000

--------------------------------
MULLIKEN REDUCED ORBITAL CHARGES
--------------------------------
  0 C s       :     3.212435  s :     3.212435
      pz      :     0.941918  p :     3.023707
      px      :     1.075432
      py      :     1.006357
      dz2     :     0.015171  d :     0.070841
      dxz     :     0.016447
      dyz     :     0.024588
      dx2y2   :     0.006158
      dxy     :     0.008476
  1 C s       :     3.100002  s :     3.100002
      pz      :     1.009879  p :     2.753847
      px      :     0.882791
      py      :     0.861177
      dz2     :     0.018096  d :     0.100587
      dxz     :     0.023274
      dyz     :     0.030032
      dx2y2   :     0.015697
      dxy     :     0.013488
  2 H s       :     0.808103  s :     0.808103
  3 H s       :     0.787029  s :     0.787029
  4 C s       :     3.358025  s :     3.358025
      pz      :     1.122297  p :     3.183270
      px      :     1.061413
      py      :     0.999560
      dz2     :     0.005875  d :     0.073159
      dxz     :     0.019414
      dyz     :     0.019495
      dx2y2   :     0.011215
      dxy     :     0.017159
  5 H s       :     0.792618  s :     0.792618
  6 H s       :     0.796629  s :     0.796629
  7 H s       :     0.795594  s :     0.795594
  8 N s       :     3.662527  s :     3.662527
      pz      :     1.230979  p :     4.127053
      px      :     1.645490
      py      :     1.250584
      dz2     :     0.004287  d :     0.035569
      dxz     :     0.005575
      dyz     :     0.014904
      dx2y2   :     0.004492
      dxy     :     0.006310
  9 H s       :     0.661736  s :     0.661736
 10 H s       :     0.657269  s :     0.657269


                     *******************************
                     * LOEWDIN POPULATION ANALYSIS *
                     *******************************

----------------------
LOEWDIN ATOMIC CHARGES
----------------------
   0 C :   -0.208995
   1 C :   -0.089243
   2 H :    0.094602
   3 H :    0.101083
   4 C :   -0.269886
   5 H :    0.099439
   6 H :    0.099325
   7 H :    0.097807
   8 N :   -0.332631
   9 H :    0.204693
  10 H :    0.203806

-------------------------------
LOEWDIN REDUCED ORBITAL CHARGES
-------------------------------
  0 C s       :     2.843598  s :     2.843598
      pz      :     1.094293  p :     3.232348
      px      :     1.073401
      py      :     1.064655
      dz2     :     0.033479  d :     0.133049
      dxz     :     0.027647
      dyz     :     0.043796
      dx2y2   :     0.012671
      dxy     :     0.015457
  1 C s       :     2.837842  s :     2.837842
      pz      :     1.121192  p :     3.052583
      px      :     0.959856
      py      :     0.971534
      dz2     :     0.037638  d :     0.198818
      dxz     :     0.043289
      dyz     :     0.054805
      dx2y2   :     0.034268
      dxy     :     0.028818
  2 H s       :     0.905398  s :     0.905398
  3 H s       :     0.898917  s :     0.898917
  4 C s       :     2.880854  s :     2.880854
      pz      :     1.098468  p :     3.274849
      px      :     1.094023
      py      :     1.082358
      dz2     :     0.008850  d :     0.114183
      dxz     :     0.027545
      dyz     :     0.029985
      dx2y2   :     0.020507
      dxy     :     0.027296
  5 H s       :     0.900561  s :     0.900561
  6 H s       :     0.900675  s :     0.900675
  7 H s       :     0.902193  s :     0.902193
  8 N s       :     3.156694  s :     3.156694
      pz      :     1.212407  p :     4.124936
      px      :     1.637818
      py      :     1.274711
      dz2     :     0.006809  d :     0.051001
      dxz     :     0.007173
      dyz     :     0.020435
      dx2y2   :     0.006486
      dxy     :     0.010097
  9 H s       :     0.795307  s :     0.795307
 10 H s       :     0.796194  s :     0.796194


                      *****************************
                      * MAYER POPULATION ANALYSIS *
                      *****************************

  NA   - Mulliken gross atomic population
  ZA   - Total nuclear charge
  QA   - Mulliken gross atomic charge
  VA   - Mayer's total valence
  BVA  - Mayer's bonded valence
  FA   - Mayer's free valence

  ATOM       NA         ZA         QA         VA         BVA        FA
  0 C      6.3070     6.0000    -0.3070     3.7446     3.7446     0.0000
  1 C      5.9544     6.0000     0.0456     3.7358     3.7358     0.0000
  2 H      0.8081     1.0000     0.1919     0.9313     0.9313     0.0000
  3 H      0.7870     1.0000     0.2130     0.9249     0.9249     0.0000
  4 C      6.6145     6.0000    -0.6145     3.7623     3.7623    -0.0000
  5 H      0.7926     1.0000     0.2074     0.9024     0.9024     0.0000
  6 H      0.7966     1.0000     0.2034     0.9173     0.9173     0.0000
  7 H      0.7956     1.0000     0.2044     0.9040     0.9040    -0.0000
  8 N      7.8251     7.0000    -0.8251     2.6913     2.6913    -0.0000
  9 H      0.6617     1.0000     0.3383     0.8508     0.8508    -0.0000
 10 H      0.6573     1.0000     0.3427     0.8524     0.8524    -0.0000

  Mayer bond orders larger than 0.1
B(  0-C ,  1-C ) :   1.8849 B(  0-C ,  2-H ) :   0.9540 B(  0-C ,  4-C ) :   0.9541 
B(  1-C ,  3-H ) :   0.9399 B(  1-C ,  8-N ) :   0.9514 B(  4-C ,  5-H ) :   0.9395 
B(  4-C ,  6-H ) :   0.9560 B(  4-C ,  7-H ) :   0.9432 B(  8-N ,  9-H ) :   0.8522 
B(  8-N , 10-H ) :   0.8556 

-------
TIMINGS
-------

Total SCF time: 0 days 0 hours 0 min 14 sec 

Total time                  ....      14.057 sec
Sum of individual times     ....      14.038 sec  ( 99.9%)

Fock matrix formation       ....      13.502 sec  ( 96.0%)
Diagonalization             ....       0.013 sec  (  0.1%)
Density matrix formation    ....       0.001 sec  (  0.0%)
Population analysis         ....       0.002 sec  (  0.0%)
Initial guess               ....       0.328 sec  (  2.3%)
Orbital Transformation      ....       0.000 sec  (  0.0%)
Orbital Orthonormalization  ....       0.000 sec  (  0.0%)
DIIS solution               ....       0.003 sec  (  0.0%)
SOSCF solution              ....       0.008 sec  (  0.1%)

------------------------------------------------------------------------------
                                ORCA  MP2 
------------------------------------------------------------------------------

MP2 will be done in the AO integral direct mode
The Q1-step will be done using symmetric double matrices
Dimension of the basis                    ...   93
Memory devoted for MP2                    ... 5000 MB   
Memory needed for all in one shot         ...   51 MB
Number of MOs that can be treated together... 1611      
MP2 density construction                  ... relaxed
The MP2 gradient is requested => amplitudes will be stored on disk
Total number of MOs              ...   16
Number of MOs treated per batch  ...   16 
Number of batches necessary      ...    1 
OPERATORS   0/  0 PASS   0
-----------------------------------------------
 MP2 CORRELATION ENERGY   :     -0.654239811 Eh
-----------------------------------------------


---------------------
MP2 DENSITY FORMATION
---------------------

Completing the external part of the density      ... done
Storing the unrelaxed density                    ... done

Calculating G(D)                                 ... done
Completing the Lagrangian                        ... done
Solving the Z-vector equations                   ... 

------------------------------------------------------------------------------
                           ORCA CP-SCF CALCULATION
------------------------------------------------------------------------------

Input orbitals are from        ... run.gbw
Input Perturbation             ... run.pin.tmp
Wavefunction output            ... run.pout.tmp
Perturbation mode              ... Real perturbation
Solver                         ... POPLE
Max. number of iterations      ... 128
Convergence tolerance          ... 1.000e-08
Integral handling              ... Direct
Number of perturbations        ... 1
Number of operators            ... 1
Orbital ranges used for CP-SCF:
 Operator 0:  Orbitals   0... 15  to  16... 92
Variables per vector in CP-SCF ... 1232
Number of vectors sought       ... 1
     CP-SCF ITERATION   0: 
     CP-SCF ITERATION   1:      0.000339236642
     CP-SCF ITERATION   2:      0.000017276253
     CP-SCF ITERATION   3:      0.000001687782
     CP-SCF ITERATION   4:      0.000000173339
     CP-SCF ITERATION   5:      0.000000015276
     CP-SCF ITERATION   6:      0.000000002002
                                                 ... done
Finalizing the relaxed density                   ... done
Transforming P to the AO basis                   ... done
Storing the relaxed density                      ... done

------------------------------------
ENERGY WEIGHTED DENSITY FINALIZATION
------------------------------------

Gathering the parts of the W-matrix              ...                                                      done
Forming the Z-density                            ... done
Transforming Z to the AO basis                   ... done
Calculating G(Z)                                 ... done
Finalizing the W-matrix                          ...                                                      done
Transforming W to the AO basis and storing       ... done

                *********************************************
                * UNRELAXED MP2 DENSITY POPULATION ANALYSIS *
                *********************************************

------------------------------------------------------------------------------
                           ORCA POPULATION ANALYSIS
------------------------------------------------------------------------------
Input electron density              ... run.pmp2ur
BaseName (.gbw .S,...)              ... run

                    ********************************
                    * MULLIKEN POPULATION ANALYSIS *
                    ********************************

-----------------------
MULLIKEN ATOMIC CHARGES
-----------------------
   0 C :   -0.308791
   1 C :    0.034002
   2 H :    0.194626
   3 H :    0.215431
   4 C :   -0.621202
   5 H :    0.209979
   6 H :    0.205895
   7 H :    0.207055
   8 N :   -0.817431
   9 H :    0.338096
  10 H :    0.342339
Sum of atomic charges:   -0.0000000

--------------------------------
MULLIKEN REDUCED ORBITAL CHARGES
--------------------------------
  0 C s       :     3.211323  s :     3.211323
      pz      :     0.937905  p :     3.006660
      px      :     1.067829
      py      :     1.000927
      dz2     :     0.018983  d :     0.090808
      dxz     :     0.020410
      dyz     :     0.028605
      dx2y2   :     0.010406
      dxy     :     0.012404
  1 C s       :     3.098810  s :     3.098810
      pz      :     1.004890  p :     2.749218
      px      :     0.883557
      py      :     0.860770
      dz2     :     0.021655  d :     0.117970
      dxz     :     0.026724
      dyz     :     0.033602
      dx2y2   :     0.019302
      dxy     :     0.016687
  2 H s       :     0.805374  s :     0.805374
  3 H s       :     0.784569  s :     0.784569
  4 C s       :     3.354484  s :     3.354484
      pz      :     1.118966  p :     3.173936
      px      :     1.058652
      py      :     0.996319
      dz2     :     0.010078  d :     0.092782
      dxz     :     0.023162
      dyz     :     0.023255
      dx2y2   :     0.015497
      dxy     :     0.020790
  5 H s       :     0.790021  s :     0.790021
  6 H s       :     0.794105  s :     0.794105
  7 H s       :     0.792945  s :     0.792945
  8 N s       :     3.658285  s :     3.658285
      pz      :     1.226033  p :     4.103671
      px      :     1.633449
      py      :     1.244189
      dz2     :     0.008229  d :     0.055475
      dxz     :     0.009635
      dyz     :     0.018507
      dx2y2   :     0.008848
      dxy     :     0.010256
  9 H s       :     0.661904  s :     0.661904
 10 H s       :     0.657661  s :     0.657661


                     *******************************
                     * LOEWDIN POPULATION ANALYSIS *
                     *******************************

----------------------
LOEWDIN ATOMIC CHARGES
----------------------
   0 C :   -0.211964
   1 C :   -0.100622
   2 H :    0.098938
   3 H :    0.105151
   4 C :   -0.281156
   5 H :    0.103458
   6 H :    0.103243
   7 H :    0.101848
   8 N :   -0.330325
   9 H :    0.206220
  10 H :    0.205211

-------------------------------
LOEWDIN REDUCED ORBITAL CHARGES
-------------------------------
  0 C s       :     2.843686  s :     2.843686
      pz      :     1.087461  p :     3.211397
      px      :     1.066105
      py      :     1.057830
      dz2     :     0.039007  d :     0.156881
      dxz     :     0.032117
      dyz     :     0.048260
      dx2y2   :     0.017154
      dxy     :     0.020344
  1 C s       :     2.838107  s :     2.838107
      pz      :     1.114397  p :     3.043585
      px      :     0.959382
      py      :     0.969806
      dz2     :     0.042801  d :     0.218930
      dxz     :     0.046954
      dyz     :     0.058668
      dx2y2   :     0.037608
      dxy     :     0.032898
  2 H s       :     0.901062  s :     0.901062
  3 H s       :     0.894849  s :     0.894849
  4 C s       :     2.881468  s :     2.881468
      pz      :     1.095368  p :     3.263148
      px      :     1.090372
      py      :     1.077408
      dz2     :     0.013602  d :     0.136540
      dxz     :     0.031856
      dyz     :     0.034307
      dx2y2   :     0.024965
      dxy     :     0.031811
  5 H s       :     0.896542  s :     0.896542
  6 H s       :     0.896757  s :     0.896757
  7 H s       :     0.898152  s :     0.898152
  8 N s       :     3.155719  s :     3.155719
      pz      :     1.208208  p :     4.101656
      px      :     1.625539
      py      :     1.267909
      dz2     :     0.011039  d :     0.072950
      dxz     :     0.011560
      dyz     :     0.024536
      dx2y2   :     0.011004
      dxy     :     0.014811
  9 H s       :     0.793780  s :     0.793780
 10 H s       :     0.794789  s :     0.794789


                      *****************************
                      * MAYER POPULATION ANALYSIS *
                      *****************************

  NA   - Mulliken gross atomic population
  ZA   - Total nuclear charge
  QA   - Mulliken gross atomic charge
  VA   - Mayer's total valence
  BVA  - Mayer's bonded valence
  FA   - Mayer's free valence

  ATOM       NA         ZA         QA         VA         BVA        FA
  0 C      6.3088     6.0000    -0.3088     3.8544     3.5060     0.3484
  1 C      5.9660     6.0000     0.0340     3.8224     3.5003     0.3221
  2 H      0.8054     1.0000     0.1946     0.9333     0.8935     0.0399
  3 H      0.7846     1.0000     0.2154     0.9264     0.8887     0.0376
  4 C      6.6212     6.0000    -0.6212     3.8748     3.6011     0.2737
  5 H      0.7900     1.0000     0.2100     0.9040     0.8655     0.0385
  6 H      0.7941     1.0000     0.2059     0.9188     0.8808     0.0380
  7 H      0.7929     1.0000     0.2071     0.9056     0.8672     0.0384
  8 N      7.8174     7.0000    -0.8174     2.8974     2.5608     0.3366
  9 H      0.6619     1.0000     0.3381     0.8523     0.8140     0.0383
 10 H      0.6577     1.0000     0.3423     0.8542     0.8161     0.0381

  Mayer bond orders larger than 0.1
B(  0-C ,  1-C ) :   1.7423 B(  0-C ,  2-H ) :   0.9169 B(  0-C ,  4-C ) :   0.9021 
B(  1-C ,  3-H ) :   0.9046 B(  1-C ,  8-N ) :   0.8984 B(  4-C ,  5-H ) :   0.9037 
B(  4-C ,  6-H ) :   0.9196 B(  4-C ,  7-H ) :   0.9074 B(  8-N ,  9-H ) :   0.8172 
B(  8-N , 10-H ) :   0.8206 


                *******************************************
                * RELAXED MP2 DENSITY POPULATION ANALYSIS *
                *******************************************

------------------------------------------------------------------------------
                           ORCA POPULATION ANALYSIS
------------------------------------------------------------------------------
Input electron density              ... run.pmp2re
BaseName (.gbw .S,...)              ... run

                    ********************************
                    * MULLIKEN POPULATION ANALYSIS *
                    ********************************

-----------------------
MULLIKEN ATOMIC CHARGES
-----------------------
   0 C :   -0.269338
   1 C :   -0.002052
   2 H :    0.185984
   3 H :    0.203855
   4 C :   -0.675310
   5 H :    0.222280
   6 H :    0.215977
   7 H :    0.219660
   8 N :   -0.769277
   9 H :    0.334177
  10 H :    0.334044
Sum of atomic charges:   -0.0000000

--------------------------------
MULLIKEN REDUCED ORBITAL CHARGES
--------------------------------
  0 C s       :     3.195690  s :     3.195690
      pz      :     0.935879  p :     2.992680
      px      :     1.061055
      py      :     0.995746
      dz2     :     0.016913  d :     0.080969
      dxz     :     0.017396
      dyz     :     0.025334
      dx2y2   :     0.010105
      dxy     :     0.011221
  1 C s       :     3.100284  s :     3.100284
      pz      :     0.998006  p :     2.795696
      px      :     0.917403
      py      :     0.880287
      dz2     :     0.019370  d :     0.106072
      dxz     :     0.023327
      dyz     :     0.029905
      dx2y2   :     0.018315
      dxy     :     0.015155
  2 H s       :     0.814016  s :     0.814016
  3 H s       :     0.796145  s :     0.796145
  4 C s       :     3.347497  s :     3.347497
      pz      :     1.141310  p :     3.246429
      px      :     1.082973
      py      :     1.022146
      dz2     :     0.008933  d :     0.081384
      dxz     :     0.019885
      dyz     :     0.020334
      dx2y2   :     0.014589
      dxy     :     0.017643
  5 H s       :     0.777720  s :     0.777720
  6 H s       :     0.784023  s :     0.784023
  7 H s       :     0.780340  s :     0.780340
  8 N s       :     3.634999  s :     3.634999
      pz      :     1.224035  p :     4.082377
      px      :     1.616452
      py      :     1.241889
      dz2     :     0.007598  d :     0.051902
      dxz     :     0.009110
      dyz     :     0.016716
      dx2y2   :     0.009030
      dxy     :     0.009448
  9 H s       :     0.665823  s :     0.665823
 10 H s       :     0.665956  s :     0.665956


                     *******************************
                     * LOEWDIN POPULATION ANALYSIS *
                     *******************************

----------------------
LOEWDIN ATOMIC CHARGES
----------------------
   0 C :   -0.210359
   1 C :   -0.127705
   2 H :    0.103559
   3 H :    0.107299
   4 C :   -0.314839
   5 H :    0.114654
   6 H :    0.113571
   7 H :    0.113237
   8 N :   -0.315886
   9 H :    0.209613
  10 H :    0.206856

-------------------------------
LOEWDIN REDUCED ORBITAL CHARGES
-------------------------------
  0 C s       :     2.846410  s :     2.846410
      pz      :     1.090999  p :     3.214307
      px      :     1.065562
      py      :     1.057746
      dz2     :     0.037416  d :     0.149642
      dxz     :     0.029877
      dyz     :     0.045900
      dx2y2   :     0.017044
      dxy     :     0.019405
  1 C s       :     2.840257  s :     2.840257
      pz      :     1.112623  p :     3.077763
      px      :     0.982266
      py      :     0.982874
      dz2     :     0.041618  d :     0.209684
      dxz     :     0.044486
      dyz     :     0.055760
      dx2y2   :     0.036196
      dxy     :     0.031624
  2 H s       :     0.896441  s :     0.896441
  3 H s       :     0.892701  s :     0.892701
  4 C s       :     2.883977  s :     2.883977
      pz      :     1.111129  p :     3.305770
      px      :     1.104856
      py      :     1.089785
      dz2     :     0.012450  d :     0.125092
      dxz     :     0.028643
      dyz     :     0.031397
      dx2y2   :     0.024055
      dxy     :     0.028547
  5 H s       :     0.885346  s :     0.885346
  6 H s       :     0.886429  s :     0.886429
  7 H s       :     0.886763  s :     0.886763
  8 N s       :     3.154384  s :     3.154384
      pz      :     1.213156  p :     4.091629
      px      :     1.609350
      py      :     1.269122
      dz2     :     0.010439  d :     0.069874
      dxz     :     0.011067
      dyz     :     0.023062
      dx2y2   :     0.011334
      dxy     :     0.013972
  9 H s       :     0.790387  s :     0.790387
 10 H s       :     0.793144  s :     0.793144


                      *****************************
                      * MAYER POPULATION ANALYSIS *
                      *****************************

  NA   - Mulliken gross atomic population
  ZA   - Total nuclear charge
  QA   - Mulliken gross atomic charge
  VA   - Mayer's total valence
  BVA  - Mayer's bonded valence
  FA   - Mayer's free valence

  ATOM       NA         ZA         QA         VA         BVA        FA
  0 C      6.2693     6.0000    -0.2693     3.8925     3.5528     0.3397
  1 C      6.0021     6.0000    -0.0021     3.8715     3.5581     0.3134
  2 H      0.8140     1.0000     0.1860     0.9327     0.8933     0.0393
  3 H      0.7961     1.0000     0.2039     0.9283     0.8913     0.0370
  4 C      6.6753     6.0000    -0.6753     3.8883     3.6172     0.2712
  5 H      0.7777     1.0000     0.2223     0.8995     0.8618     0.0377
  6 H      0.7840     1.0000     0.2160     0.9137     0.8764     0.0372
  7 H      0.7803     1.0000     0.2197     0.9012     0.8635     0.0377
  8 N      7.7693     7.0000    -0.7693     2.9906     2.6606     0.3301
  9 H      0.6658     1.0000     0.3342     0.8532     0.8151     0.0381
 10 H      0.6660     1.0000     0.3340     0.8582     0.8203     0.0379

  Mayer bond orders larger than 0.1
B(  0-C ,  1-C ) :   1.7261 B(  0-C ,  2-H ) :   0.9093 B(  0-C ,  4-C ) :   0.9245 
B(  1-C ,  3-H ) :   0.8982 B(  1-C ,  8-N ) :   0.9579 B(  4-C ,  5-H ) :   0.8962 
B(  4-C ,  6-H ) :   0.9104 B(  4-C ,  7-H ) :   0.9001 B(  8-N ,  9-H ) :   0.8168 
B(  8-N , 10-H ) :   0.8210 


----------------------------------
MP2 DERIVATIVE INTEGRAL GENERATION
----------------------------------


Input Wavefunction Amplitudes       ... run.mp2tsaa.tmp.proc0
Input Correlated Electron Density   ... run.pmp2re
Input Energy Weighted Density       ... run.wmp2.tmp
Input SCF Electron Density          ... run.scfp.tmp

One-Electron Terms    ...
                        ... One-Electron Terms done
Prescreening matrices              ... done

Batch handling in the gradient evaluation:
Memory available                      ... 5000.0 MB
Memory per occupied orbital in Q2     ...    1.1 MB
Memory per occupied orbital in Q3     ...    0.0 MB
Total memory requirement per |i>      ...    1.1 MB
Max. Number of orbitals possible      ...   4657
Number of orbitals treated per batch  ...     16
Number of batches to be done          ...      1
Batch   0: i=    0 ...    15

---------------------------------------
MP2 TOTAL ENERGY:     -172.787703173 Eh
---------------------------------------

The final MP2 gradient
  0:  -0.00008220   0.00006471  -0.00005920
  1:   0.00000627  -0.00013084   0.00009098
  2:   0.00003636  -0.00000210   0.00001895
  3:  -0.00001739   0.00000139  -0.00003333
  4:  -0.00002791  -0.00004250   0.00003755
  5:   0.00003529   0.00002810   0.00000617
  6:  -0.00000766  -0.00000093  -0.00001355
  7:  -0.00000158   0.00000140   0.00000039
  8:   0.00010084   0.00012374  -0.00007825
  9:  -0.00004970  -0.00001162  -0.00000156
 10:   0.00000767  -0.00003135   0.00003186

-----------------------------------
NORM OF THE MP2 GRADIENT:  0.000293
-----------------------------------

-------------------------   --------------------
FINAL SINGLE POINT ENERGY      -172.787703173237
-------------------------   --------------------


                            ***************************************
                            *     ORCA property calculations      *
                            ***************************************

                                    ---------------------
                                    Active property flags
                                    ---------------------
   (+) Dipole Moment


------------------------------------------------------------------------------
                       ORCA ELECTRIC PROPERTIES CALCULATION
------------------------------------------------------------------------------

Dipole Moment Calculation                       ... on
Quadrupole Moment Calculation                   ... off
Polarizability Calculation                      ... off
GBWName                                         ... run.gbw
Electron density file                           ... run.scfp.tmp
The origin for moment calculation is the CENTER OF MASS  = (-0.078241, -0.738954  0.998293)

-------------
DIPOLE MOMENT
-------------
                                X             Y             Z
Electronic contribution:      1.30657       1.72829       1.43633
Nuclear contribution   :     -1.59236      -1.28800      -1.25322
                        -----------------------------------------
Total Dipole Moment    :     -0.28579       0.44028       0.18310
                        -----------------------------------------
Magnitude (a.u.)       :      0.55592
Magnitude (Debye)      :      1.41305


                         *** MP2 UNRELAXED DENSITY ***

------------------------------------------------------------------------------
                       ORCA ELECTRIC PROPERTIES CALCULATION
------------------------------------------------------------------------------

Dipole Moment Calculation                       ... on
Quadrupole Moment Calculation                   ... off
Polarizability Calculation                      ... off
GBWName                                         ... run.gbw
Electron density file                           ... run.pmp2ur
The origin for moment calculation is the CENTER OF MASS  = (-0.078241, -0.738954  0.998293)

-------------
DIPOLE MOMENT
-------------
                                X             Y             Z
Electronic contribution:      1.31211       1.73095       1.43394
Nuclear contribution   :     -1.59236      -1.28800      -1.25322
                        -----------------------------------------
Total Dipole Moment    :     -0.28026       0.44294       0.18072
                        -----------------------------------------
Magnitude (a.u.)       :      0.55444
Magnitude (Debye)      :      1.40927


                           *** MP2 RELAXED DENSITY ***

------------------------------------------------------------------------------
                       ORCA ELECTRIC PROPERTIES CALCULATION
------------------------------------------------------------------------------

Dipole Moment Calculation                       ... on
Quadrupole Moment Calculation                   ... off
Polarizability Calculation                      ... off
GBWName                                         ... run.gbw
Electron density file                           ... run.pmp2re
The origin for moment calculation is the CENTER OF MASS  = (-0.078241, -0.738954  0.998293)

-------------
DIPOLE MOMENT
-------------
                                X             Y             Z
Electronic contribution:      1.33590       1.75610       1.42826
Nuclear contribution   :     -1.59236      -1.28800      -1.25322
                        -----------------------------------------
Total Dipole Moment    :     -0.25647       0.46809       0.17504
                        -----------------------------------------
Magnitude (a.u.)       :      0.56172
Magnitude (Debye)      :      1.42777


----------------------------------------------------------------------------
                           ORCA NUMERICAL FREQUENCIES
----------------------------------------------------------------------------

Number of atoms                ... 11
Central differences            ... used
Number of displacements        ... 66
Numerical increment            ...  0.005 bohr
IR-spectrum generation         ... on
Raman-spectrum generation      ... off
Surface Crossing Hessian       ... off

                    <<<RESTART CALCULATION>>>
 Will try to read the Hessian file and continue where the previous
 run stopped. The .hess file must have the same name as before!

     ....    checking local Hessian files ...  

!!! No Restart Hessian found - Restarting from scratch !!! 

The output will be reduced. Please look at the following files:
SCF program output             ... >run.lastscf
Integral program output        ... >run.lastint
Gradient program output        ... >run.lastgrad
Dipole moment program output   ... >run.lastmom


         <<<Energy and Gradient at the input geometry>>>
             <<<Displacing   1/coordinate 1 (+)>>>
             <<<Displacing   1/coordinate 1 (-)>>>
             <<<Displacing   1/coordinate 2 (+)>>>
             <<<Displacing   1/coordinate 2 (-)>>>
             <<<Displacing   1/coordinate 3 (+)>>>
             <<<Displacing   1/coordinate 3 (-)>>>
             <<<Displacing   2/coordinate 1 (+)>>>
             <<<Displacing   2/coordinate 1 (-)>>>
             <<<Displacing   2/coordinate 2 (+)>>>
             <<<Displacing   2/coordinate 2 (-)>>>
             <<<Displacing   2/coordinate 3 (+)>>>
             <<<Displacing   2/coordinate 3 (-)>>>
             <<<Displacing   3/coordinate 1 (+)>>>
             <<<Displacing   3/coordinate 1 (-)>>>
             <<<Displacing   3/coordinate 2 (+)>>>
             <<<Displacing   3/coordinate 2 (-)>>>
             <<<Displacing   3/coordinate 3 (+)>>>
             <<<Displacing   3/coordinate 3 (-)>>>
             <<<Displacing   4/coordinate 1 (+)>>>
             <<<Displacing   4/coordinate 1 (-)>>>
             <<<Displacing   4/coordinate 2 (+)>>>
             <<<Displacing   4/coordinate 2 (-)>>>
             <<<Displacing   4/coordinate 3 (+)>>>
             <<<Displacing   4/coordinate 3 (-)>>>
             <<<Displacing   5/coordinate 1 (+)>>>
             <<<Displacing   5/coordinate 1 (-)>>>
             <<<Displacing   5/coordinate 2 (+)>>>
             <<<Displacing   5/coordinate 2 (-)>>>
             <<<Displacing   5/coordinate 3 (+)>>>
             <<<Displacing   5/coordinate 3 (-)>>>
             <<<Displacing   6/coordinate 1 (+)>>>
             <<<Displacing   6/coordinate 1 (-)>>>
             <<<Displacing   6/coordinate 2 (+)>>>
             <<<Displacing   6/coordinate 2 (-)>>>
             <<<Displacing   6/coordinate 3 (+)>>>
             <<<Displacing   6/coordinate 3 (-)>>>
             <<<Displacing   7/coordinate 1 (+)>>>
             <<<Displacing   7/coordinate 1 (-)>>>
             <<<Displacing   7/coordinate 2 (+)>>>
             <<<Displacing   7/coordinate 2 (-)>>>
             <<<Displacing   7/coordinate 3 (+)>>>
             <<<Displacing   7/coordinate 3 (-)>>>
             <<<Displacing   8/coordinate 1 (+)>>>
             <<<Displacing   8/coordinate 1 (-)>>>
             <<<Displacing   8/coordinate 2 (+)>>>
             <<<Displacing   8/coordinate 2 (-)>>>
             <<<Displacing   8/coordinate 3 (+)>>>
             <<<Displacing   8/coordinate 3 (-)>>>
             <<<Displacing   9/coordinate 1 (+)>>>
             <<<Displacing   9/coordinate 1 (-)>>>
             <<<Displacing   9/coordinate 2 (+)>>>
             <<<Displacing   9/coordinate 2 (-)>>>
             <<<Displacing   9/coordinate 3 (+)>>>
             <<<Displacing   9/coordinate 3 (-)>>>
             <<<Displacing  10/coordinate 1 (+)>>>
             <<<Displacing  10/coordinate 1 (-)>>>
             <<<Displacing  10/coordinate 2 (+)>>>
             <<<Displacing  10/coordinate 2 (-)>>>
             <<<Displacing  10/coordinate 3 (+)>>>
             <<<Displacing  10/coordinate 3 (-)>>>
             <<<Displacing  11/coordinate 1 (+)>>>
             <<<Displacing  11/coordinate 1 (-)>>>
             <<<Displacing  11/coordinate 2 (+)>>>
             <<<Displacing  11/coordinate 2 (-)>>>
             <<<Displacing  11/coordinate 3 (+)>>>
             <<<Displacing  11/coordinate 3 (-)>>>

-----------------------
VIBRATIONAL FREQUENCIES
-----------------------

   0:         0.00 cm**-1
   1:         0.00 cm**-1
   2:         0.00 cm**-1
   3:         0.00 cm**-1
   4:         0.00 cm**-1
   5:         0.00 cm**-1
   6:       186.58 cm**-1
   7:       243.66 cm**-1
   8:       291.69 cm**-1
   9:       361.38 cm**-1
  10:       533.36 cm**-1
  11:       737.53 cm**-1
  12:       814.06 cm**-1
  13:       940.33 cm**-1
  14:       960.01 cm**-1
  15:      1080.42 cm**-1
  16:      1095.98 cm**-1
  17:      1164.34 cm**-1
  18:      1269.08 cm**-1
  19:      1351.87 cm**-1
  20:      1399.77 cm**-1
  21:      1459.02 cm**-1
  22:      1519.24 cm**-1
  23:      1543.95 cm**-1
  24:      1720.61 cm**-1
  25:      1764.35 cm**-1
  26:      3063.47 cm**-1
  27:      3133.56 cm**-1
  28:      3155.92 cm**-1
  29:      3171.60 cm**-1
  30:      3193.61 cm**-1
  31:      3588.43 cm**-1
  32:      3698.92 cm**-1


------------
NORMAL MODES
------------

These modes are the cartesian displacements weighted by the diagonal matrix
M(i,i)=1/sqrt(m[i]) where m[i] is the mass of the displaced atom
Thus, these vectors are normalized but *not* orthogonal

                  0          1          2          3          4          5    
      0       0.000000   0.000000   0.000000   0.000000   0.000000   0.000000
      1       0.000000   0.000000   0.000000   0.000000   0.000000   0.000000
      2       0.000000   0.000000   0.000000   0.000000   0.000000   0.000000
      3       0.000000   0.000000   0.000000   0.000000   0.000000   0.000000
      4       0.000000   0.000000   0.000000   0.000000   0.000000   0.000000
      5       0.000000   0.000000   0.000000   0.000000   0.000000   0.000000
      6       0.000000   0.000000   0.000000   0.000000   0.000000   0.000000
      7       0.000000   0.000000   0.000000   0.000000   0.000000   0.000000
      8       0.000000   0.000000   0.000000   0.000000   0.000000   0.000000
      9       0.000000   0.000000   0.000000   0.000000   0.000000   0.000000
     10       0.000000   0.000000   0.000000   0.000000   0.000000   0.000000
     11       0.000000   0.000000   0.000000   0.000000   0.000000   0.000000
     12       0.000000   0.000000   0.000000   0.000000   0.000000   0.000000
     13       0.000000   0.000000   0.000000   0.000000   0.000000   0.000000
     14       0.000000   0.000000   0.000000   0.000000   0.000000   0.000000
     15       0.000000   0.000000   0.000000   0.000000   0.000000   0.000000
     16       0.000000   0.000000   0.000000   0.000000   0.000000   0.000000
     17       0.000000   0.000000   0.000000   0.000000   0.000000   0.000000
     18       0.000000   0.000000   0.000000   0.000000   0.000000   0.000000
     19       0.000000   0.000000   0.000000   0.000000   0.000000   0.000000
     20       0.000000   0.000000   0.000000   0.000000   0.000000   0.000000
     21       0.000000   0.000000   0.000000   0.000000   0.000000   0.000000
     22       0.000000   0.000000   0.000000   0.000000   0.000000   0.000000
     23       0.000000   0.000000   0.000000   0.000000   0.000000   0.000000
     24       0.000000   0.000000   0.000000   0.000000   0.000000   0.000000
     25       0.000000   0.000000   0.000000   0.000000   0.000000   0.000000
     26       0.000000   0.000000   0.000000   0.000000   0.000000   0.000000
     27       0.000000   0.000000   0.000000   0.000000   0.000000   0.000000
     28       0.000000   0.000000   0.000000   0.000000   0.000000   0.000000
     29       0.000000   0.000000   0.000000   0.000000   0.000000   0.000000
     30       0.000000   0.000000   0.000000   0.000000   0.000000   0.000000
     31       0.000000   0.000000   0.000000   0.000000   0.000000   0.000000
     32       0.000000   0.000000   0.000000   0.000000   0.000000   0.000000
                  6          7          8          9         10         11    
      0       0.106135   0.123816   0.011968  -0.014374  -0.096639  -0.088806
      1      -0.068709  -0.066567  -0.105380  -0.020867  -0.112297   0.059261
      2      -0.009578  -0.045339   0.176204   0.042241   0.002801   0.000635
      3      -0.013011   0.113077   0.046074  -0.102664   0.099551   0.066027
      4       0.011470  -0.056095  -0.091223   0.069328   0.147271  -0.061958
      5      -0.002831  -0.045919   0.163271   0.040992  -0.051963  -0.010339
      6       0.191398   0.082720  -0.002455   0.201152  -0.188927   0.515501
      7      -0.127358  -0.068503   0.016334  -0.140698  -0.218103  -0.329030
      8      -0.016694  -0.065053   0.264472   0.046398  -0.137455  -0.030056
      9      -0.116497   0.177799   0.173441  -0.187486   0.112521  -0.241044
     10       0.080219  -0.123656  -0.033865   0.171638   0.202402   0.130398
     11       0.005052  -0.071173   0.267340   0.083374   0.007167   0.003023
     12      -0.037189  -0.085647  -0.032543   0.025838  -0.117302  -0.016764
     13       0.020295   0.038924   0.045349  -0.019038  -0.172754   0.011684
     14       0.002178   0.033892  -0.144358  -0.035003  -0.136656   0.004485
     15      -0.291282  -0.211028  -0.006156   0.091673  -0.030107   0.140957
     16       0.218151  -0.195467   0.102136   0.075682  -0.040190   0.118986
     17      -0.461248   0.169054  -0.181442  -0.075525  -0.198180   0.041035
     18       0.375828  -0.307951  -0.282002   0.054515  -0.220095   0.076071
     19      -0.238735   0.246332  -0.088387  -0.116292  -0.335842  -0.044993
     20      -0.001632   0.080128  -0.330118  -0.086110  -0.282686   0.003517
     21      -0.315988   0.027447   0.123580   0.016913  -0.034738  -0.042099
     22       0.155623   0.182147   0.296684  -0.044848  -0.066440  -0.162552
     23       0.474532  -0.067520  -0.259892  -0.035048  -0.210824  -0.035769
     24      -0.031742  -0.079212  -0.007857   0.051203   0.107526   0.066721
     25       0.021644   0.066729   0.092231  -0.013156   0.133093   0.003597
     26       0.011565   0.014698  -0.109915  -0.066945   0.181767   0.021372
     27      -0.093567   0.027313  -0.043438   0.572188  -0.106502  -0.444614
     28       0.061609  -0.313295   0.313717  -0.378569   0.006542   0.041201
     29      -0.032644   0.242227  -0.232363   0.310549   0.166184  -0.174992
     30       0.024685  -0.497778  -0.157639  -0.373764   0.336714  -0.460731
     31      -0.010071   0.342975  -0.085951   0.265309   0.243933   0.088926
     32      -0.006165   0.191655  -0.325579   0.111924   0.344128  -0.041547
                 12         13         14         15         16         17    
      0       0.077864  -0.030566   0.027628  -0.094574  -0.056496  -0.121287
      1      -0.042497  -0.081654  -0.005228   0.061827  -0.092255  -0.176066
      2      -0.021362   0.051382  -0.003594   0.005158   0.061092  -0.056793
      3      -0.150309   0.026708   0.069646   0.013070  -0.010407  -0.055870
      4       0.065079   0.035696  -0.052189  -0.004988   0.039442  -0.115714
      5       0.003679  -0.089433   0.010185  -0.002122  -0.033634  -0.013580
      6      -0.395259  -0.331697  -0.402325   0.098178   0.109922  -0.253847
      7       0.266633  -0.178579   0.353684  -0.067226   0.076067  -0.375228
      8       0.004654  -0.165880   0.085059  -0.008913   0.286256  -0.276446
      9       0.141009  -0.122552  -0.646121  -0.095348   0.284399  -0.189163
     10      -0.181292   0.141547   0.473106   0.067898   0.186273  -0.159007
     11      -0.059677  -0.077496   0.107138   0.006499   0.225444  -0.097376
     12       0.007932   0.058295  -0.006188   0.126082   0.040602   0.090407
     13      -0.019279   0.082531  -0.009419  -0.080762   0.064037   0.142978
     14      -0.004408   0.127154  -0.027095  -0.003634  -0.059802  -0.027040
     15      -0.091776   0.213199  -0.037399  -0.473224  -0.037061   0.058882
     16      -0.094212   0.405171  -0.094819  -0.374690  -0.141239   0.006907
     17      -0.016210  -0.079947   0.036937  -0.254948   0.097167   0.097298
     18      -0.027031  -0.185541   0.071065  -0.248009   0.219991   0.263854
     19       0.046394  -0.287479   0.062407   0.164306   0.340467   0.403219
     20       0.023081  -0.218184   0.052795   0.006582   0.193822   0.206533
     21       0.017409   0.292554  -0.051208   0.141960  -0.111212  -0.015377
     22       0.081409   0.386668  -0.079485   0.572625  -0.090604   0.053498
     23       0.029441  -0.082763   0.008681   0.262255   0.101376   0.094952
     24       0.155202  -0.020622   0.005832   0.006921   0.001099   0.058943
     25      -0.026787  -0.055512   0.007279  -0.005528  -0.029326   0.113100
     26       0.040553  -0.034765  -0.004932  -0.000178  -0.051694   0.079459
     27      -0.419182  -0.245456  -0.033880  -0.012758  -0.401435   0.355800
     28       0.119769  -0.198153  -0.060083  -0.009888  -0.322019   0.294483
     29      -0.215003  -0.048892   0.013082  -0.002954  -0.057240   0.105076
     30      -0.613120   0.017405  -0.066513  -0.038158   0.233522  -0.005535
     31       0.094162   0.066426   0.040446   0.008841   0.224815  -0.022418
     32      -0.066573   0.094540   0.009154   0.001068   0.256904  -0.073436
                 18         19         20         21         22         23    
      0       0.004493   0.034210  -0.041156   0.022182   0.012862   0.002938
      1       0.016561   0.061101  -0.056008   0.032000  -0.008561   0.005459
      2      -0.069625  -0.089557  -0.092030   0.018597   0.000179  -0.009057
      3      -0.127699  -0.043465   0.008962  -0.000683   0.000580  -0.011095
      4      -0.182671  -0.062062   0.006447  -0.001318  -0.000783  -0.016029
      5      -0.022842   0.098159  -0.068410   0.025443  -0.001490  -0.024202
      6       0.255395  -0.211872   0.204858  -0.048871  -0.021454   0.018189
      7       0.361540  -0.293873   0.291474  -0.064519   0.012970   0.025075
      8       0.344414  -0.502686   0.305656  -0.102316   0.001699   0.013980
      9      -0.112206   0.289707   0.303583  -0.060382  -0.009579   0.050810
     10      -0.150722   0.332308   0.406743  -0.078149   0.008770   0.066026
     11       0.017734   0.581875   0.390202  -0.059494   0.000651   0.066300
     12      -0.011142   0.003715  -0.011201  -0.076554   0.047885   0.007195
     13      -0.026879   0.005196  -0.019132  -0.119859  -0.027384   0.016117
     14       0.083662   0.005792   0.042018  -0.050621  -0.002363  -0.047651
     15       0.038151  -0.036052   0.111536   0.463135   0.179662   0.332292
     16       0.163845   0.003025   0.202366   0.302531   0.355123  -0.188141
     17      -0.077354  -0.039876  -0.074746   0.044980  -0.261405   0.522092
     18      -0.141966  -0.020998   0.022983   0.227148  -0.608257  -0.144148
     19      -0.202947  -0.024941   0.043372   0.363663   0.372356  -0.269129
     20      -0.089169  -0.027990   0.080768   0.369817  -0.004484  -0.268669
     21       0.136173   0.015473   0.133441   0.076280  -0.268015  -0.278178
     22       0.121733  -0.031334   0.183192   0.541294  -0.311151   0.241886
     23      -0.066339  -0.038380  -0.072130   0.060264   0.303111   0.510773
     24       0.081064   0.004779  -0.018649  -0.000305  -0.000358   0.001099
     25       0.125048  -0.002367  -0.026052   0.001951  -0.000025   0.001322
     26      -0.024980  -0.016304   0.064820  -0.018889   0.000463   0.008596
     27      -0.111439  -0.118862   0.230503  -0.052803   0.000379   0.033489
     28      -0.105240  -0.092038   0.236458  -0.066658   0.002380   0.042369
     29       0.021964  -0.015108   0.032025  -0.006261  -0.000801   0.001823
     30       0.410286   0.082220  -0.230675   0.055757   0.001484  -0.016267
     31       0.373733   0.089281  -0.183059   0.037332  -0.002453  -0.002554
     32       0.300788   0.097215  -0.151433   0.033902  -0.001426  -0.001643
                 24         25         26         27         28         29    
      0       0.031072   0.081861  -0.000145  -0.000015   0.012932  -0.024580
      1       0.040533   0.107330  -0.000339   0.000030   0.022477  -0.042975
      2       0.092166   0.235318   0.001461  -0.000202  -0.028593   0.058434
      3      -0.012324  -0.107348   0.000447   0.000264   0.001267   0.001413
      4      -0.041137  -0.123054   0.000574   0.000145   0.001726   0.003181
      5      -0.086522  -0.264994   0.000496  -0.000265   0.001593  -0.012127
      6      -0.066165  -0.132218   0.005083  -0.001084  -0.156243   0.306013
      7      -0.095613  -0.210596   0.009370  -0.001107  -0.267934   0.525430
      8      -0.042216  -0.080319  -0.016498   0.001559   0.331160  -0.641045
      9       0.044767   0.202319  -0.002676  -0.000570  -0.003872  -0.037852
     10       0.092172   0.273893  -0.003843  -0.003241  -0.006008  -0.066027
     11       0.024248   0.152177   0.002913   0.003431   0.002478   0.082562
     12      -0.007403  -0.015040  -0.023527   0.079065  -0.010606  -0.003747
     13      -0.009019  -0.023487  -0.039559  -0.047596  -0.026631  -0.011158
     14      -0.012270  -0.024465  -0.021527  -0.005457   0.077096   0.039875
     15      -0.036715  -0.084529  -0.356282  -0.389559   0.159229   0.084040
     16      -0.021519  -0.055839   0.377386   0.431551  -0.176621  -0.098487
     17      -0.027938  -0.055067   0.343785   0.406543  -0.139622  -0.077624
     18       0.024801   0.043477   0.155771  -0.002357   0.242325   0.118976
     19       0.035223   0.062918   0.252486  -0.039214   0.392548   0.192787
     20       0.029478   0.053912  -0.408456   0.045358  -0.616292  -0.300082
     21      -0.006321  -0.014034   0.477600  -0.551366  -0.282210  -0.154176
     22      -0.047734  -0.094986  -0.164046   0.177116   0.090481   0.045668
     23      -0.032293  -0.058596   0.315567  -0.386240  -0.171180  -0.094355
     24      -0.021447   0.034584  -0.000325  -0.000009  -0.000029  -0.000032
     25      -0.066900   0.091509  -0.000068  -0.000028  -0.000038  -0.000105
     26      -0.007719   0.059981  -0.000311  -0.000030  -0.000174   0.000235
     27       0.250824  -0.003598   0.001027   0.000056  -0.000858   0.001651
     28       0.637599  -0.353381  -0.001492   0.000226  -0.001321   0.002621
     29      -0.230775   0.250489  -0.001202   0.000324  -0.000387   0.000913
     30      -0.048338  -0.009078   0.000739  -0.000087  -0.000782   0.002502
     31       0.444167  -0.426380  -0.000342   0.000107  -0.001668   0.006603
     32       0.465720  -0.450953   0.001405   0.000032  -0.000668  -0.000554
                  30         31         32    
      0       0.004348  -0.000352   0.000041
      1       0.007015  -0.000493  -0.000214
      2      -0.001720  -0.000033   0.000477
      3       0.027702  -0.002025   0.000945
      4       0.048638   0.000229   0.001063
      5      -0.065171  -0.001552  -0.001569
      6      -0.034201  -0.000861   0.000944
      7      -0.060422   0.004872   0.001309
      8       0.072897  -0.001261   0.000855
      9      -0.332710  -0.001329  -0.006176
     10      -0.584867  -0.004060  -0.008499
     11       0.725252   0.006260   0.010572
     12       0.000192   0.000354  -0.000093
     13       0.001707  -0.000150   0.000057
     14      -0.004824   0.000083   0.000011
     15      -0.007822  -0.000009   0.000114
     16       0.007605  -0.001801   0.000183
     17       0.006203  -0.001043   0.000105
     18      -0.017699  -0.000236  -0.000043
     19      -0.028115  -0.000389  -0.000095
     20       0.038485   0.000026  -0.000437
     21       0.018698  -0.001140   0.000216
     22      -0.007263   0.000862  -0.000448
     23       0.012541  -0.000618   0.000216
     24      -0.001110  -0.001782   0.024784
     25      -0.001508   0.055187   0.010072
     26       0.001285   0.004001  -0.078492
     27       0.006550   0.200266  -0.239930
     28       0.001434  -0.255655   0.315730
     29      -0.006218  -0.574100   0.636531
     30      -0.001574  -0.147813  -0.110154
     31       0.009088  -0.505781  -0.458926
     32      -0.012492   0.533027   0.455765


-----------
IR SPECTRUM
-----------

 Mode    freq (cm**-1)   T**2         TX         TY         TZ
-------------------------------------------------------------------
   6:       186.58    1.615401  ( -0.938551   0.595859  -0.616015)
   7:       243.66   17.568241  ( -2.510620   0.117360   3.354289)
   8:       291.69   11.654911  ( -2.478083  -0.945794  -2.149299)
   9:       361.38   46.220515  (  2.464474   0.021873   6.336119)
  10:       533.36    1.668452  ( -0.085396  -0.074405  -1.286710)
  11:       737.53  109.659315  ( -8.063125  -3.788490  -5.503878)
  12:       814.06  246.607669  (-13.642188  -2.305095  -7.428654)
  13:       940.33    8.785754  ( -1.855878   1.495123  -1.762407)
  14:       960.01   52.379282  ( -5.811999   3.804859   2.030518)
  15:      1080.42    0.299703  ( -0.224030   0.423046   0.265604)
  16:      1095.98    2.355557  (  0.779457   0.643579   1.154907)
  17:      1164.34   12.970747  ( -1.071521  -1.769661  -2.948032)
  18:      1269.08   46.713524  ( -2.720239  -4.431990  -4.435233)
  19:      1351.87    0.623649  (  0.492786   0.470525   0.399270)
  20:      1399.77    0.267346  ( -0.231908   0.393779  -0.241874)
  21:      1459.02    2.894696  (  0.771625   0.908440  -1.214095)
  22:      1519.24    7.893024  ( -2.428332   1.403629   0.161409)
  23:      1543.95    8.603629  ( -1.083086  -1.662030   2.160604)
  24:      1720.61   29.349383  ( -1.880502   4.636043  -2.078509)
  25:      1764.35   84.937681  ( -2.956797  -7.117230  -5.053719)
  26:      3063.47   43.261937  ( -3.162657  -4.860639  -3.103824)
  27:      3133.56   27.344362  (  4.480483  -2.675426  -0.334263)
  28:      3155.92   13.737946  (  0.704325   0.581732   3.592139)
  29:      3171.60   31.910463  ( -2.076855  -3.713292   3.715993)
  30:      3193.61   23.421911  (  2.095272   3.562868  -2.517482)
  31:      3588.43    6.093613  (  0.194592  -2.077775  -1.318559)
  32:      3698.92    6.094510  ( -0.908562  -0.254866   2.281243)

The first frequency considered to be a vibration is 6
The total number of vibrations considered is 27


--------------------------
THERMOCHEMISTRY AT 298.15K
--------------------------

Temperature         ... 298.15 K
Pressure            ... 1.00 atm
Total Mass          ... 57.10 AMU

Throughout the following assumptions are being made:
  (1) The electronic state is orbitally nondegenerate
  (2) There are no thermally accessible electronically excited states
  (3) Hindered rotations indicated by low frequency modes are not
      treated as such but are treated as vibrations and this may
      cause some error
  (4) All equations used are the standard statistical mechanics
      equations for an ideal gas
  (5) All vibrations are strictly harmonic

freq.     186.58  E(vib)   ...       0.37 
freq.     243.66  E(vib)   ...       0.31 
freq.     291.69  E(vib)   ...       0.27 
freq.     361.38  E(vib)   ...       0.22 
freq.     533.36  E(vib)   ...       0.13 
freq.     737.53  E(vib)   ...       0.06 
freq.     814.06  E(vib)   ...       0.05 
freq.     940.33  E(vib)   ...       0.03 
freq.     960.01  E(vib)   ...       0.03 
freq.    1080.42  E(vib)   ...       0.02 
freq.    1095.98  E(vib)   ...       0.02 
freq.    1164.34  E(vib)   ...       0.01 
freq.    1269.08  E(vib)   ...       0.01 
freq.    1351.87  E(vib)   ...       0.01 
freq.    1399.77  E(vib)   ...       0.00 
freq.    1459.02  E(vib)   ...       0.00 
freq.    1519.24  E(vib)   ...       0.00 
freq.    1543.95  E(vib)   ...       0.00 
freq.    1720.61  E(vib)   ...       0.00 
freq.    1764.35  E(vib)   ...       0.00 
freq.    3063.47  E(vib)   ...       0.00 
freq.    3133.56  E(vib)   ...       0.00 
freq.    3155.92  E(vib)   ...       0.00 
freq.    3171.60  E(vib)   ...       0.00 
freq.    3193.61  E(vib)   ...       0.00 
freq.    3588.43  E(vib)   ...       0.00 
freq.    3698.92  E(vib)   ...       0.00 

------------
INNER ENERGY
------------

The inner energy is: U= E(el) + E(ZPE) + E(vib) + E(rot) + E(trans)
    E(el)   - is the total energy from the electronic structure calculation
              = E(kin-el) + E(nuc-el) + E(el-el) + E(nuc-nuc)
    E(ZPE)  - the the zero temperature vibrational energy from the frequency calculation
    E(vib)  - the the finite temperature correction to E(ZPE) due to population
              of excited vibrational states
    E(rot)  - is the rotational thermal energy
    E(trans)- is the translational thermal energy

Summary of contributions to the inner energy U:
Electronic energy                ...   -172.78770316 Eh
Zero point energy                ...      0.09896986 Eh      62.10 kcal/mol
Thermal vibrational correction   ...      0.00243874 Eh       1.53 kcal/mol
Thermal rotational correction    ...      0.00141627 Eh       0.89 kcal/mol
Thermal translational correction ...      0.00141627 Eh       0.89 kcal/mol
-----------------------------------------------------------------------
Total thermal energy                   -172.68346201 Eh


Summary of corrections to the electronic energy:
(perhaps to be used in another calculation)
Total thermal correction                  0.00527128 Eh       3.31 kcal/mol
Non-thermal (ZPE) correction              0.09896986 Eh      62.10 kcal/mol
-----------------------------------------------------------------------
Total correction                          0.10424115 Eh      65.41 kcal/mol


--------
ENTHALPY
--------

The enthalpy is H = U + kB*T
                kB is Boltzmann's constant
Total free energy                 ...   -172.68346201 Eh 
Thermal Enthalpy correction       ...      0.00094421 Eh       0.59 kcal/mol
-----------------------------------------------------------------------
Total Enthalpy                    ...   -172.68251780 Eh


Vibrational entropy computed according to the QRRHO of S. Grimme
Chem.Eur.J. 2012 18 9955


-------
ENTROPY
-------

The entropy contributions are T*S = T*(S(el)+S(vib)+S(rot)+S(trans)
     S(el)   - electronic entropy
     S(vib)  - vibrational entropy
     S(rot)  - rotational entropy
     S(trans)- translational entropy
The entropies will be listed as mutliplied by the temperature to get
units of energy

Electronic entropy                ...      0.00000000 Eh      0.00 kcal/mol
Vibrational entropy               ...      0.00389229 Eh      2.44 kcal/mol
Rotational entropy                ...      0.01032405 Eh      6.48 kcal/mol
Translational entropy             ...      0.01807751 Eh     11.34 kcal/mol
-----------------------------------------------------------------------
Final entropy term                ...      0.03229386 Eh     20.26 kcal/mol


CAUTION: The rotational entropy is not quite correctly treated here
         because it includes a symmetry number that is not yet correctly
         implemented in ORCA!
For a nonlinear molecule the correct rotational entropy is:
    S(rot) = R*(ln(qrot/sn)+1.5)
    R    = 8.31441 J/mol/K = 1.987191683e-3 kcal/mol/K
    qrot = 37534.4324534
    sn is the rotational symmetry number. We have assumed 3 here
       if it is different for your molecule then you should correct
       the printed rotational entropy by manually evaluating the equation
       as given above

For convenience we print out the resulting values for sn=1 - 12:
 sn= 1  qrot/sn=   37534.4325 T*S(rot)=     7.13 kcal/mol T*S(tot)=    20.92 kcal/mol
 sn= 2  qrot/sn=   18767.2162 T*S(rot)=     6.72 kcal/mol T*S(tot)=    20.50 kcal/mol
 sn= 3  qrot/sn=   12511.4775 T*S(rot)=     6.48 kcal/mol T*S(tot)=    20.26 kcal/mol
 sn= 4  qrot/sn=    9383.6081 T*S(rot)=     6.31 kcal/mol T*S(tot)=    20.09 kcal/mol
 sn= 5  qrot/sn=    7506.8865 T*S(rot)=     6.18 kcal/mol T*S(tot)=    19.96 kcal/mol
 sn= 6  qrot/sn=    6255.7387 T*S(rot)=     6.07 kcal/mol T*S(tot)=    19.85 kcal/mol
 sn= 7  qrot/sn=    5362.0618 T*S(rot)=     5.98 kcal/mol T*S(tot)=    19.76 kcal/mol
 sn= 8  qrot/sn=    4691.8041 T*S(rot)=     5.90 kcal/mol T*S(tot)=    19.68 kcal/mol
 sn= 9  qrot/sn=    4170.4925 T*S(rot)=     5.83 kcal/mol T*S(tot)=    19.61 kcal/mol
 sn=10  qrot/sn=    3753.4432 T*S(rot)=     5.77 kcal/mol T*S(tot)=    19.55 kcal/mol
 sn=11  qrot/sn=    3412.2211 T*S(rot)=     5.71 kcal/mol T*S(tot)=    19.49 kcal/mol
 sn=12  qrot/sn=    3127.8694 T*S(rot)=     5.66 kcal/mol T*S(tot)=    19.44 kcal/mol


-------------------
GIBBS FREE ENTHALPY
-------------------

The Gibbs free enthalpy is G = H - T*S

Total enthalpy                    ...   -172.68251780 Eh 
Total entropy correction          ...     -0.03229386 Eh    -20.26 kcal/mol
-----------------------------------------------------------------------
Final Gibbs free enthalpy         ...   -172.71481166 Eh

For completeness - the Gibbs free enthalpy minus the electronic energy
G-E(el)                           ...      0.07289150 Eh     45.74 kcal/mol


Total Time for Numerical Frequencies  :      1474.109 sec
Time for Reference State(s)           :        19.657 sec
Time for Displacements                :      1454.263 sec

Timings for individual modules:

Sum of individual times         ...       50.870 sec (=   0.848 min)
GTO integral calculation        ...        0.616 sec (=   0.010 min)   1.2 %
SCF iterations                  ...       15.980 sec (=   0.266 min)  31.4 %
MP2 module                      ...       34.274 sec (=   0.571 min)  67.4 %
                             ****ORCA TERMINATED NORMALLY****
TOTAL RUN TIME: 0 days 0 hours 25 minutes 5 seconds 797 msec
