
                                 *****************
                                 * O   R   C   A *
                                 *****************

           --- An Ab Initio, DFT and Semiempirical electronic structure package ---

                  #######################################################
                  #                        -***-                        #
                  #  Department of molecular theory and spectroscopy    #
                  #              Directorship: Frank Neese              #
                  # Max Planck Institute for Chemical Energy Conversion #
                  #                  D-45470 Muelheim/Ruhr              #
                  #                       Germany                       #
                  #                                                     #
                  #                  All rights reserved                #
                  #                        -***-                        #
                  #######################################################


                         Program Version 4.0.1.2 - RELEASE -


 With contributions from (in alphabetic order):
   Daniel Aravena         : Magnetic Properties
   Michael Atanasov       : Ab Initio Ligand Field Theory
   Ute Becker             : Parallelization
   Martin Brehm           : Molecular dynamics
   Dmytro Bykov           : SCF Hessian
   Vijay G. Chilkuri      : MRCI spin determinant printing
   Dipayan Datta          : RHF DLPNO-CCSD density
   Achintya Kumar Dutta   : EOM-CC, STEOM-CC
   Dmitry Ganyushin       : Spin-Orbit,Spin-Spin,Magnetic field MRCI
   Yang Guo               : DLPNO-NEVPT2, CIM, IAO-localization
   Andreas Hansen         : Spin unrestricted coupled pair/coupled cluster methods
   Lee Huntington         : MR-EOM, pCC
   Robert Izsak           : Overlap fitted RIJCOSX, COSX-SCS-MP3, EOM
   Christian Kollmar      : KDIIS, OOCD, Brueckner-CCSD(T), CCSD density
   Simone Kossmann        : Meta GGA functionals, TD-DFT gradient, OOMP2, MP2 Hessian
   Martin Krupicka        : AUTO-CI
   Dagmar Lenk            : GEPOL surface
   Dimitrios Liakos       : Extrapolation schemes; parallel MDCI
   Dimitrios Manganas     : ROCIS; embedding schemes
   Dimitrios Pantazis     : SARC Basis sets
   Taras Petrenko         : DFT Hessian,TD-DFT gradient, ASA, ECA, R-Raman, ABS, FL, XAS/XES, NRVS
   Peter Pinski           : DLPNO-MP2
   Christoph Reimann      : Effective Core Potentials
   Marius Retegan         : Local ZFS, SOC
   Christoph Riplinger    : Optimizer, TS searches, QM/MM, DLPNO-CCSD(T), (RO)-DLPNO pert. Triples
   Tobias Risthaus        : Range-separated hybrids, TD-DFT gradient, RPA, STAB
   Michael Roemelt        : Restricted open shell CIS
   Masaaki Saitow         : Open-shell DLPNO
   Barbara Sandhoefer     : DKH picture change effects
   Kantharuban Sivalingam : CASSCF convergence, NEVPT2, FIC-MRCI
   Georgi Stoychev        : AutoAux
   Boris Wezisla          : Elementary symmetry handling
   Frank Wennmohs         : Technical directorship


 We gratefully acknowledge several colleagues who have allowed us to
 interface, adapt or use parts of their codes:
   Stefan Grimme, W. Hujo, H. Kruse,             : VdW corrections, initial TS optimization,
                  C. Bannwarth                     DFT functionals, gCP, sTDA/sTD-DF
   Ed Valeev                                     : LibInt (2-el integral package), F12 methods
   Garnet Chan, S. Sharma, J. Yang, R. Olivares  : DMRG
   Ulf Ekstrom                                   : XCFun DFT Library
   Mihaly Kallay                                 : mrcc  (arbitrary order and MRCC methods)
   Andreas Klamt, Michael Diedenhofen            : otool_cosmo (COSMO solvation model)
   Jiri Pittner, Ondrej Demel                    : Mk-CCSD
   Frank Weinhold                                : gennbo (NPA and NBO analysis)
   Christopher J. Cramer and Donald G. Truhlar   : smd solvation model


 Your calculation uses the libint2 library for the computation of 2-el integrals
 For citations please refer to: http://libint.valeyev.net

 This ORCA versions uses:
   CBLAS   interface :  Fast vector & matrix operations
   LAPACKE interface :  Fast linear algebra routines
   SCALAPACK package :  Parallel linear algebra routines




*****************************************
The coordinations will be read from file: inp.xyz
*****************************************


Your calculation utilizes the basis: 6-311G(d)
   H, Li - Ne  : R. Krishnan, J. S. Binkley, R. Seeger and J. A. Pople, J. Chem. Phys. 72, 650 (1980).
   Na - Ar     : A. D. McLean and G. S. Chandler J. Chem. Phys. 72, 5639, (1980).
   K  - Ca     : J.-P. Blaudeau, M. P. McGrath, L. A. Curtiss and L. Radom, J. Chem. Phys. 107, 5016 (1997).
   Ga - Kr     : L. A. Curtiss, M. P. McGrath, J.-P. Blandeau, N. E. Davis, R. C. Binning and L. Radom, J. Chem. Phys. 103, 6104 (1995).
   Pol./Diff.
   H, Li - Cl  : T. Clark, J. Chandrasekhar and P. v. R. Schleyer, J. Comp. Chem. 4, 294 (1983).
   H - Ne      : M. J. Frisch, J. A. Pople and J. S. Binkley, J. Chem. Phys. 80, 3265 (1984).

================================================================================
                                        WARNINGS
                       Please study these warnings very carefully!
================================================================================

Warning: TCutStore was < 0. Adjusted to Thresh (uncritical)

WARNING: TCut can not be >=Thresh
  ===> : TCut is set to 0.01*Thresh

WARNING: Geometry Optimization
  ===> : Switching off AutoStart
         For restart on a previous wavefunction, please use MOREAD

WARNING: Post HF methods need fully converged wavefunctions
  ===> : Setting SCFConvForced true
         You can overwrite this default with %scf ConvForced false 


INFO   : the flag for use of LIBINT has been found!

================================================================================
                                       INPUT FILE
================================================================================
NAME = run.inp
|  1> ! MP2 6-311G(d) Opt NoFrozenCore ExtremeSCF
|  2> 
|  3> %geom
|  4>  MaxIter 1
|  5>  inhess unit
|  6>  MaxStep 0.01                              
|  7>  Convergence tight
|  8>  Trust 0.1
|  9> end
| 10> 
| 11> %mp2 MaxCore 5000
| 12> end
| 13> 
| 14> *xyzfile -1 1 inp.xyz
| 15> 
| 16>                          ****END OF INPUT****
================================================================================

                       *****************************
                       * Geometry Optimization Run *
                       *****************************

Geometry optimization settings:
Update method            Update   .... BFGS
Choice of coordinates    CoordSys .... Redundant Internals
Initial Hessian          InHess   .... Unit Matrix

Convergence Tolerances:
Energy Change            TolE     ....  3.0000e-05 Eh
Max. Gradient            TolMAXG  ....  2.0000e-03 Eh/bohr
RMS Gradient             TolRMSG  ....  5.0000e-04 Eh/bohr
Max. Displacement        TolMAXD  ....  1.0000e-02 bohr
RMS Displacement         TolRMSD  ....  7.0000e-03 bohr

------------------------------------------------------------------------------
                        ORCA OPTIMIZATION COORDINATE SETUP
------------------------------------------------------------------------------

The optimization will be done in new redundant internal coordinates
Making redundant internal coordinates   ...  (new redundants) done
Evaluating the initial hessian          ... done
Evaluating the coordinates              ...  done
Calculating the B-matrix                .... done
Calculating the G-matrix                .... done
Diagonalizing the G-matrix              .... done
The first mode is                       ....   67
The number of degrees of freedom        ....   36

    -----------------------------------------------------------------
                    Redundant Internal Coordinates


    -----------------------------------------------------------------
         Definition                    Initial Value    Approx d2E/dq
    -----------------------------------------------------------------
      1. B(C   1,C   0)                  1.3635         0.500000   
      2. B(Cl  2,C   1)                  3.2537         0.500000   
      3. B(Cl  2,C   0)                  2.6006         0.500000   
      4. B(H   4,C   1)                  1.5278         0.500000   
      5. B(H   4,Cl  3)                  1.4706         0.500000   
      6. B(H   5,C   0)                  1.0849         0.500000   
      7. B(H   5,Cl  2)                  2.6211         0.500000   
      8. B(H   6,C   1)                  1.0916         0.500000   
      9. B(C   7,C   0)                  1.4916         0.500000   
     10. B(C   7,Cl  2)                  3.2127         0.500000   
     11. B(H   8,C   7)                  1.0886         0.500000   
     12. B(H   8,Cl  2)                  2.9600         0.500000   
     13. B(H   9,C   7)                  1.0914         0.500000   
     14. B(H  10,C   7)                  1.0981         0.500000   
     15. B(N  11,C   1)                  1.4381         0.500000   
     16. B(H  12,N  11)                  1.0134         0.500000   
     17. B(H  13,N  11)                  1.0166         0.500000   
     18. B(H  13,Cl  2)                  2.8767         0.500000   
     19. A(C   1,C   0,Cl  2)          106.0788         0.200000   
     20. A(Cl  2,C   0,H   5)           79.0711         0.200000   
     21. A(C   1,C   0,H   5)          117.0071         0.200000   
     22. A(Cl  2,C   0,C   7)           99.8995         0.200000   
     23. A(C   1,C   0,C   7)          123.1702         0.200000   
     24. A(H   5,C   0,C   7)          117.0529         0.200000   
     25. A(C   0,C   1,Cl  2)           50.1751         0.200000   
     26. A(H   6,C   1,N  11)          115.3282         0.200000   
     27. A(H   4,C   1,H   6)           99.0195         0.200000   
     28. A(C   0,C   1,N  11)          121.4834         0.200000   
     29. A(C   0,C   1,H   6)          118.1076         0.200000   
     30. A(C   0,C   1,H   4)           89.6853         0.200000   
     31. A(Cl  2,C   1,N  11)           90.2945         0.200000   
     32. A(Cl  2,C   1,H   6)          110.2825         0.200000   
     33. A(Cl  2,C   1,H   4)          137.9095         0.200000   
     34. A(H   4,C   1,N  11)          104.0333         0.200000   
     35. A(C   0,Cl  2,C   1)           23.7461         0.200000   
     36. A(C   1,Cl  2,C   7)           45.7113         0.200000   
     37. A(C   0,Cl  2,C   7)           27.2172         0.200000   
     38. A(C   1,H   4,Cl  3)          166.4666         0.200000   
     39. A(Cl  2,C   7,H   9)           97.4276         0.200000   
     40. A(C   0,C   7,Cl  2)           52.8833         0.200000   
     41. A(H   8,C   7,H   9)          108.5897         0.200000   
     42. A(C   0,C   7,H   9)          111.0667         0.200000   
     43. A(H   9,C   7,H  10)          108.6670         0.200000   
     44. A(C   0,C   7,H   8)          109.9737         0.200000   
     45. A(H   8,C   7,H  10)          108.9600         0.200000   
     46. A(Cl  2,C   7,H   8)           66.8932         0.200000   
     47. A(C   0,C   7,H  10)          109.5412         0.200000   
     48. A(Cl  2,C   7,H  10)          153.1425         0.200000   
     49. A(H  12,N  11,H  13)          108.9442         0.200000   
     50. A(C   1,N  11,H  13)          106.4935         0.200000   
     51. A(C   1,N  11,H  12)          111.3224         0.200000   
     52. D(Cl  2,C   1,C   0,C   7)    113.7128         0.100000   
     53. D(N  11,C   1,C   0,C   7)    173.5249         0.100000   
     54. D(H   4,C   1,C   0,Cl  2)    166.1311         0.100000   
     55. D(N  11,C   1,C   0,Cl  2)     59.8121         0.100000   
     56. D(N  11,C   1,C   0,H   5)    -25.9126         0.100000   
     57. D(H   4,C   1,C   0,H   5)     80.4064         0.100000   
     58. D(H   6,C   1,C   0,Cl  2)    -93.8019         0.100000   
     59. D(Cl  2,C   1,C   0,H   5)    -85.7246         0.100000   
     60. D(H   4,C   1,C   0,C   7)    -80.1561         0.100000   
     61. D(H   6,C   1,C   0,H   5)   -179.5265         0.100000   
     62. D(H   6,C   1,C   0,C   7)     19.9109         0.100000   
     63. D(C   7,Cl  2,C   0,C   1)    128.9256         0.100000   
     64. D(C   1,Cl  2,C   0,H   5)    115.1925         0.100000   
     65. D(C   7,Cl  2,C   0,H   5)   -115.8819         0.100000   
     66. D(C   7,Cl  2,C   1,H   4)    -50.7585         0.100000   
     67. D(C   1,Cl  2,C   0,C   7)   -128.9256         0.100000   
     68. D(C   7,Cl  2,C   1,H   6)     80.4256         0.100000   
     69. D(C   0,Cl  2,C   1,H   4)    -20.9526         0.100000   
     70. D(C   7,Cl  2,C   1,N  11)   -162.3170         0.100000   
     71. D(C   0,Cl  2,C   1,N  11)   -132.5111         0.100000   
     72. D(C   0,Cl  2,C   1,H   6)    110.2315         0.100000   
     73. D(C   7,Cl  2,C   1,C   0)    -29.8058         0.100000   
     74. D(Cl  3,H   4,C   1,Cl  2)   -139.4225         0.100000   
     75. D(Cl  3,H   4,C   1,N  11)    -32.8865         0.100000   
     76. D(Cl  3,H   4,C   1,H   6)     86.2019         0.100000   
     77. D(Cl  3,H   4,C   1,C   0)   -155.3630         0.100000   
     78. D(H   9,C   7,C   0,C   1)    -33.5041         0.100000   
     79. D(H   8,C   7,C   0,Cl  2)    -36.9946         0.100000   
     80. D(H   8,C   7,C   0,H   5)     45.7106         0.100000   
     81. D(H   9,C   7,C   0,H   5)    165.9416         0.100000   
     82. D(H   8,C   7,C   0,C   1)   -153.7351         0.100000   
     83. D(H  10,C   7,Cl  2,C   1)     81.4881         0.100000   
     84. D(H   9,C   7,Cl  2,C   1)    -84.8978         0.100000   
     85. D(H   9,C   7,Cl  2,C   0)   -110.8509         0.100000   
     86. D(H   8,C   7,Cl  2,C   1)    168.0104         0.100000   
     87. D(H   8,C   7,Cl  2,C   0)    142.0573         0.100000   
     88. D(C   0,C   7,Cl  2,C   1)     25.9531         0.100000   
     89. D(Cl  2,C   7,C   0,H   5)     82.7052         0.100000   
     90. D(Cl  2,C   7,C   0,C   1)   -116.7405         0.100000   
     91. D(H  10,C   7,C   0,Cl  2)   -156.7191         0.100000   
     92. D(H  10,C   7,C   0,H   5)    -74.0139         0.100000   
     93. D(H  10,C   7,Cl  2,C   0)     55.5350         0.100000   
     94. D(H  10,C   7,C   0,C   1)     86.5404         0.100000   
     95. D(H   9,C   7,C   0,Cl  2)     83.2364         0.100000   
     96. D(H  13,N  11,C   1,Cl  2)      6.6561         0.100000   
     97. D(H  13,N  11,C   1,H   4)   -133.3587         0.100000   
     98. D(H  13,N  11,C   1,H   6)    119.3591         0.100000   
     99. D(H  13,N  11,C   1,C   0)    -34.9387         0.100000   
    100. D(H  12,N  11,C   1,Cl  2)    125.2783         0.100000   
    101. D(H  12,N  11,C   1,H   4)    -14.7365         0.100000   
    102. D(H  12,N  11,C   1,H   6)   -122.0187         0.100000   
    103. D(H  12,N  11,C   1,C   0)     83.6835         0.100000   
    -----------------------------------------------------------------

Number of atoms                         .... 14
Number of degrees of freedom            .... 103

         *************************************************************
         *                GEOMETRY OPTIMIZATION CYCLE   1            *
         *************************************************************
---------------------------------
CARTESIAN COORDINATES (ANGSTROEM)
---------------------------------
  C     -0.279866   -0.124350   -0.173102
  C     -0.224711   -0.095434    1.189021
  Cl     2.171971    0.139124   -0.998983
  Cl    -3.126360    0.437340    1.592079
  H     -1.738844    0.102778    1.237724
  H     -0.336531    0.830902   -0.684251
  H     -0.159368   -1.046196    1.721389
  C     -0.682973   -1.333403   -0.948061
  H     -0.233696   -1.306610   -1.939312
  H     -0.361545   -2.247007   -0.444970
  H     -1.775899   -1.355406   -1.052181
  N      0.298850    1.042500    1.895497
  H     -0.407036    1.760134    2.012828
  H      1.054796    1.413157    1.325753

----------------------------
CARTESIAN COORDINATES (A.U.)
----------------------------
  NO LB      ZA    FRAG     MASS         X           Y           Z
   0 C     6.0000    0    12.011   -0.528870   -0.234987   -0.327115
   1 C     6.0000    0    12.011   -0.424642   -0.180344    2.246924
   2 Cl   17.0000    0    35.453    4.104430    0.262906   -1.887804
   3 Cl   17.0000    0    35.453   -5.907964    0.826453    3.008593
   4 H     1.0000    0     1.008   -3.285939    0.194222    2.338959
   5 H     1.0000    0     1.008   -0.635951    1.570177   -1.293047
   6 H     1.0000    0     1.008   -0.301162   -1.977024    3.252954
   7 C     6.0000    0    12.011   -1.290632   -2.519766   -1.791576
   8 H     1.0000    0     1.008   -0.441621   -2.469135   -3.664769
   9 H     1.0000    0     1.008   -0.683221   -4.246228   -0.840871
  10 H     1.0000    0     1.008   -3.355963   -2.561346   -1.988334
  11 N     7.0000    0    14.007    0.564745    1.970039    3.581970
  12 H     1.0000    0     1.008   -0.769187    3.326171    3.803694
  13 H     1.0000    0     1.008    1.993276    2.670480    2.505310

--------------------------------
INTERNAL COORDINATES (ANGSTROEM)
--------------------------------
 C      0   0   0     0.000000000000     0.00000000     0.00000000
 C      1   0   0     1.363545846758     0.00000000     0.00000000
 Cl     1   2   0     2.600577368471   106.07884929     0.00000000
 Cl     2   1   3     2.977561217782    95.71613303   163.35562791
 H      4   2   1     1.470612065816     6.89641192    24.76795521
 H      1   2   3     1.084891978922   117.00708473   274.27538267
 H      2   1   3     1.091619794488   118.10757944   266.19809565
 C      1   2   3     1.491598425160   123.17022132   113.71281431
 H      8   1   2     1.088644217630   109.97367558   206.26493233
 H      8   1   2     1.091370139907   111.06669653   326.49588624
 H      8   1   2     1.098094871987   109.54119135    86.54041553
 N      2   1   3     1.438095354159   121.48343606    59.81205601
 H     12   2   1     1.013429902121   111.32243855    83.68354135
 H     12   2   1     1.016587031248   106.49348512   325.06133065

---------------------------
INTERNAL COORDINATES (A.U.)
---------------------------
 C      0   0   0     0.000000000000     0.00000000     0.00000000
 C      1   0   0     2.576728221418     0.00000000     0.00000000
 Cl     1   2   0     4.914379016485   106.07884929     0.00000000
 Cl     2   1   3     5.626775248594    95.71613303   163.35562791
 H      4   2   1     2.779054053633     6.89641192    24.76795521
 H      1   2   3     2.050148725051   117.00708473   274.27538267
 H      2   1   3     2.062862453949   118.10757944   266.19809565
 C      1   2   3     2.818712525340   123.17022132   113.71281431
 H      8   1   2     2.057239428597   109.97367558   206.26493233
 H      8   1   2     2.062390675164   111.06669653   326.49588624
 H      8   1   2     2.075098577119   109.54119135    86.54041553
 N      2   1   3     2.717606373825   121.48343606    59.81205601
 H     12   2   1     1.915104970935   111.32243855    83.68354135
 H     12   2   1     1.921071080354   106.49348512   325.06133065

---------------------
BASIS SET INFORMATION
---------------------
There are 4 groups of distinct atoms

 Group   1 Type C   : 11s5p1d contracted to 4s3p1d pattern {6311/311/1}
 Group   2 Type Cl  : 13s10p1d contracted to 6s5p1d pattern {631111/52111/1}
 Group   3 Type H   : 5s contracted to 3s pattern {311}
 Group   4 Type N   : 11s5p1d contracted to 4s3p1d pattern {6311/311/1}

Atom   0C    basis set group =>   1
Atom   1C    basis set group =>   1
Atom   2Cl   basis set group =>   2
Atom   3Cl   basis set group =>   2
Atom   4H    basis set group =>   3
Atom   5H    basis set group =>   3
Atom   6H    basis set group =>   3
Atom   7C    basis set group =>   1
Atom   8H    basis set group =>   3
Atom   9H    basis set group =>   3
Atom  10H    basis set group =>   3
Atom  11N    basis set group =>   4
Atom  12H    basis set group =>   3
Atom  13H    basis set group =>   3
------------------------------------------------------------------------------
                           ORCA GTO INTEGRAL CALCULATION
------------------------------------------------------------------------------

                         BASIS SET STATISTICS AND STARTUP INFO

 # of primitive gaussian shells          ...  156
 # of primitive gaussian functions       ...  260
 # of contracted shells                  ...   80
 # of contracted basis functions         ...  148
 Highest angular momentum                ...    2
 Maximum contraction depth               ...    6
 Integral package used                   ... LIBINT
 Integral threshhold            Thresh   ...  3.000e-16
 Primitive cut-off              TCut     ...  3.000e-18


------------------------------ INTEGRAL EVALUATION ----------------------------


 * One electron integrals 
 Pre-screening matrix                    ... done
 Shell pair data                         ... done (   0.002 sec)

-------------------------------------------------------------------------------
                                 ORCA SCF
-------------------------------------------------------------------------------

------------
SCF SETTINGS
------------
Hamiltonian:
 Ab initio Hamiltonian  Method          .... Hartree-Fock(GTOs)


General Settings:
 Integral files         IntName         .... run
 Hartree-Fock type      HFTyp           .... RHF
 Total Charge           Charge          ....   -1
 Multiplicity           Mult            ....    1
 Number of Electrons    NEL             ....   68
 Basis Dimension        Dim             ....  148
 Nuclear Repulsion      ENuc            ....    331.2819397374 Eh

Convergence Acceleration:
 DIIS                   CNVDIIS         .... on
   Start iteration      DIISMaxIt       ....    12
   Startup error        DIISStart       ....  0.200000
   # of expansion vecs  DIISMaxEq       ....     5
   Bias factor          DIISBfac        ....   1.050
   Max. coefficient     DIISMaxC        ....  10.000
 Newton-Raphson         CNVNR           .... off
 SOSCF                  CNVSOSCF        .... on
   Start iteration      SOSCFMaxIt      ....   150
   Startup grad/error   SOSCFStart      ....  0.003300
 Level Shifting         CNVShift        .... on
   Level shift para.    LevelShift      ....    0.2500
   Turn off err/grad.   ShiftErr        ....    0.0010
 Zerner damping         CNVZerner       .... off
 Static damping         CNVDamp         .... on
   Fraction old density DampFac         ....    0.7000
   Max. Damping (<1)    DampMax         ....    0.9800
   Min. Damping (>=0)   DampMin         ....    0.0000
   Turn off err/grad.   DampErr         ....    0.1000
 Fernandez-Rico         CNVRico         .... off

SCF Procedure:
 Maximum # iterations   MaxIter         ....   125
 SCF integral mode      SCFMode         .... Direct
   Integral package                     .... LIBINT
 Reset frequeny         DirectResetFreq ....    20
 Integral Threshold     Thresh          ....  3.000e-16 Eh
 Primitive CutOff       TCut            ....  3.000e-18 Eh

Convergence Tolerance:
 Convergence Check Mode ConvCheckMode   .... All-Criteria
 Convergence forced     ConvForced      .... 1
 Energy Change          TolE            ....  1.000e-14 Eh
 Max Density Change     TolMaxP         ....  1.000e-14
 RMS Density Change     TolRMSP         ....  1.000e-14
 Orbital Gradient       TolG            ....  1.000e-09
 Orbital Rotation angle TolX            ....  1.000e-09
 DIIS Error             TolErr          ....  1.000e-14


Diagonalization of the overlap matrix:
Smallest eigenvalue                        ... 2.085e-03
Time for diagonalization                   ...    0.004 sec
Threshold for overlap eigenvalues          ... 1.000e-08
Number of eigenvalues below threshold      ... 0
Time for construction of square roots      ...    0.001 sec
Total time needed                          ...    0.005 sec

-------------------
DFT GRID GENERATION
-------------------

General Integration Accuracy     IntAcc      ...  4.340
Radial Grid Type                 RadialGrid  ... Gauss-Chebyshev
Angular Grid (max. acc.)         AngularGrid ... Lebedev-110
Angular grid pruning method      GridPruning ... 3 (G Style)
Weight generation scheme         WeightScheme... Becke
Basis function cutoff            BFCut       ...    3.0000e-16
Integration weight cutoff        WCut        ...    1.0000e-14
Grids for H and He will be reduced by one unit

# of grid points (after initial pruning)     ...  16710 (   0.0 sec)
# of grid points (after weights+screening)   ...  15675 (   0.0 sec)
nearest neighbour list constructed           ...    0.0 sec
Grid point re-assignment to atoms done       ...    0.0 sec
Grid point division into batches done        ...    0.0 sec
Reduced shell lists constructed in    0.3 sec

Total number of grid points                  ...    15675
Total number of batches                      ...      252
Average number of points per batch           ...       62
Average number of grid points per atom       ...     1120
Average number of shells per batch           ...    56.68 (70.84%)
Average number of basis functions per batch  ...   107.15 (72.40%)
Average number of large shells per batch     ...    46.26 (81.63%)
Average number of large basis fcns per batch ...    86.71 (80.92%)
Maximum spatial batch extension              ...  21.16, 22.20, 19.75 au
Average spatial batch extension              ...   3.92,  4.08,  4.12 au

Time for grid setup =    0.352 sec

------------------------------
INITIAL GUESS: MODEL POTENTIAL
------------------------------
Loading Hartree-Fock densities                     ... done
Calculating cut-offs                               ... done
Setting up the integral package                    ... done
Initializing the effective Hamiltonian             ... done
Starting the Coulomb interaction                   ... done (   0.2 sec)
Reading the grid                                   ... done
Mapping shells                                     ... done
Starting the XC term evaluation                    ... done (   0.3 sec)
Transforming the Hamiltonian                       ... done (   0.0 sec)
Diagonalizing the Hamiltonian                      ... done (   0.0 sec)
Back transforming the eigenvectors                 ... done (   0.0 sec)
Now organizing SCF variables                       ... done
                      ------------------
                      INITIAL GUESS DONE (   1.0 sec)
                      ------------------
--------------
SCF ITERATIONS
--------------
ITER       Energy         Delta-E        Max-DP      RMS-DP      [F,P]     Damp
               ***  Starting incremental Fock matrix formation  ***
  0  -1091.4205306677   0.000000000000 0.06140555  0.00180118  0.6466579 0.7000
  1  -1091.5398937106  -0.119363042907 0.04563788  0.00141996  0.4554544 0.7000
  2  -1091.6129662880  -0.073072577391 0.02844280  0.00091181  0.3210460 0.7000
  3  -1091.6594329855  -0.046466697462 0.01698857  0.00056530  0.2265639 0.7000
                               ***Turning on DIIS***
  4  -1091.6907323977  -0.031299412260 0.01005834  0.00036258  0.1597010 0.7000
  5  -1092.1027476960  -0.412015298239 0.00585835  0.00025470  0.1124559 0.7000
  6  -1092.0355397821   0.067207913850 0.01744267  0.00067720  0.0787813 0.0000
  7  -1091.7736662343   0.261873547808 0.00508363  0.00011239  0.0041261 0.0000
                      *** Initiating the SOSCF procedure ***
                           *** Shutting down DIIS ***
                      *** Re-Reading the Fockian *** 
                      *** Removing any level shift *** 
ITER      Energy       Delta-E        Grad      Rot      Max-DP    RMS-DP
  8  -1091.77040419   0.0032620433  0.002372  0.002372  0.004137  0.000088
               *** Restarting incremental Fock matrix formation ***
  9  -1091.76408417   0.0063200185  0.001097  0.002201  0.002360  0.000051
 10  -1091.76409777  -0.0000136020  0.000397  0.002138  0.003067  0.000065
 11  -1091.76410343  -0.0000056512  0.000080  0.000143  0.000237  0.000008
 12  -1091.76410370  -0.0000002771  0.000039  0.000082  0.000061  0.000003
 13  -1091.76410373  -0.0000000274  0.000013  0.000061  0.000047  0.000001
 14  -1091.76410374  -0.0000000050  0.000003  0.000007  0.000016  0.000000
 15  -1091.76410374  -0.0000000004  0.000001  0.000002  0.000003  0.000000
 16  -1091.76410374  -0.0000000000  0.000000  0.000001  0.000001  0.000000
 17  -1091.76410374  -0.0000000000  0.000000  0.000000  0.000000  0.000000
 18  -1091.76410374  -0.0000000000  0.000000  0.000000  0.000000  0.000000
 19  -1091.76410374   0.0000000000  0.000000  0.000000  0.000000  0.000000
 20  -1091.76410374   0.0000000000  0.000000  0.000000  0.000000  0.000000
 21  -1091.76410374   0.0000000000  0.000000  0.000000  0.000000  0.000000
                    ***Orbital Rotation convergence achieved***
 22  -1091.76410374  -0.0000000000  0.000000  0.000000  0.000000  0.000000
 23  -1091.76410374  -0.0000000000  0.000000  0.000000  0.000000  0.000000
                           ***RMSP convergence achieved***
                           ***MAXP convergence achieved***
                       ***Gradient convergence achieved***
 24  -1091.76410374  -0.0000000000  0.000000  0.000000  0.000000  0.000000
                          ***Energy convergence achieved***
              ***Rediagonalizing the Fockian in SOSCF/NRSCF***

               *****************************************************
               *                     SUCCESS                       *
               *           SCF CONVERGED AFTER  25 CYCLES          *
               *****************************************************


----------------
TOTAL SCF ENERGY
----------------

Total Energy       :        -1091.76410374 Eh          -29708.41161 eV

Components:
Nuclear Repulsion  :          331.28193974 Eh            9014.63988 eV
Electronic Energy  :        -1423.04604347 Eh          -38723.05148 eV
One Electron Energy:        -2174.79380747 Eh          -59179.14811 eV
Two Electron Energy:          751.74776400 Eh           20456.09663 eV

Virial components:
Potential Energy   :        -2183.61376425 Eh          -59419.15134 eV
Kinetic Energy     :         1091.84966052 Eh           29710.73973 eV
Virial Ratio       :            1.99992164


---------------
SCF CONVERGENCE
---------------

  Last Energy change         ...    0.0000e+00  Tolerance :   1.0000e-14
  Last MAX-Density change    ...    0.0000e+00  Tolerance :   1.0000e-14
  Last RMS-Density change    ...    0.0000e+00  Tolerance :   1.0000e-14
  Last Orbital Gradient      ...    9.9799e-10  Tolerance :   1.0000e-09
  Last Orbital Rotation      ...    0.0000e+00  Tolerance :   1.0000e-09

             **** THE GBW FILE WAS UPDATED (run.gbw) ****
             **** DENSITY FILE WAS UPDATED (run.scfp.tmp) ****
             **** ENERGY FILE WAS UPDATED (run.en.tmp) ****
----------------
ORBITAL ENERGIES
----------------

  NO   OCC          E(Eh)            E(eV) 
   0   2.0000    -104.657642     -2847.8792 
   1   2.0000    -104.553950     -2845.0576 
   2   2.0000     -15.411557      -419.3698 
   3   2.0000     -11.159541      -303.6665 
   4   2.0000     -11.117246      -302.5156 
   5   2.0000     -11.115403      -302.4655 
   6   2.0000     -10.384493      -282.5764 
   7   2.0000     -10.280139      -279.7368 
   8   2.0000      -7.852376      -213.6740 
   9   2.0000      -7.850361      -213.6192 
  10   2.0000      -7.850353      -213.6190 
  11   2.0000      -7.747139      -210.8104 
  12   2.0000      -7.746777      -210.8005 
  13   2.0000      -7.746728      -210.7992 
  14   2.0000      -1.066235       -29.0137 
  15   2.0000      -0.945847       -25.7378 
  16   2.0000      -0.917436       -24.9647 
  17   2.0000      -0.802295       -21.8316 
  18   2.0000      -0.793561       -21.5939 
  19   2.0000      -0.654539       -17.8109 
  20   2.0000      -0.541467       -14.7341 
  21   2.0000      -0.522877       -14.2282 
  22   2.0000      -0.490502       -13.3472 
  23   2.0000      -0.467917       -12.7327 
  24   2.0000      -0.436039       -11.8652 
  25   2.0000      -0.417605       -11.3636 
  26   2.0000      -0.396609       -10.7923 
  27   2.0000      -0.301616        -8.2074 
  28   2.0000      -0.300771        -8.1844 
  29   2.0000      -0.283415        -7.7121 
  30   2.0000      -0.253399        -6.8953 
  31   2.0000      -0.206673        -5.6239 
  32   2.0000      -0.205242        -5.5849 
  33   2.0000      -0.171390        -4.6638 
  34   0.0000       0.245441         6.6788 
  35   0.0000       0.282780         7.6948 
  36   0.0000       0.295379         8.0377 
  37   0.0000       0.315230         8.5778 
  38   0.0000       0.347224         9.4485 
  39   0.0000       0.349590         9.5128 
  40   0.0000       0.364541         9.9197 
  41   0.0000       0.371318        10.1041 
  42   0.0000       0.409908        11.1542 
  43   0.0000       0.475315        12.9340 
  44   0.0000       0.497329        13.5330 
  45   0.0000       0.531154        14.4534 
  46   0.0000       0.553491        15.0612 
  47   0.0000       0.571903        15.5623 
  48   0.0000       0.582817        15.8593 
  49   0.0000       0.592576        16.1248 
  50   0.0000       0.621844        16.9212 
  51   0.0000       0.633766        17.2457 
  52   0.0000       0.648692        17.6518 
  53   0.0000       0.666219        18.1287 
  54   0.0000       0.688688        18.7402 
  55   0.0000       0.698422        19.0050 
  56   0.0000       0.736736        20.0476 
  57   0.0000       0.740302        20.1446 
  58   0.0000       0.775347        21.0983 
  59   0.0000       0.787662        21.4334 
  60   0.0000       0.864271        23.5180 
  61   0.0000       0.877837        23.8872 
  62   0.0000       0.902674        24.5630 
  63   0.0000       0.915497        24.9119 
  64   0.0000       0.937391        25.5077 
  65   0.0000       0.939429        25.5632 
  66   0.0000       0.952680        25.9237 
  67   0.0000       0.979263        26.6471 
  68   0.0000       1.033329        28.1183 
  69   0.0000       1.054804        28.7027 
  70   0.0000       1.096240        29.8302 
  71   0.0000       1.137388        30.9499 
  72   0.0000       1.149716        31.2854 
  73   0.0000       1.192621        32.4529 
  74   0.0000       1.231055        33.4987 
  75   0.0000       1.282838        34.9078 
  76   0.0000       1.307892        35.5896 
  77   0.0000       1.316057        35.8117 
  78   0.0000       1.321622        35.9632 
  79   0.0000       1.324507        36.0417 
  80   0.0000       1.333498        36.2863 
  81   0.0000       1.421696        38.6863 
  82   0.0000       1.425476        38.7892 
  83   0.0000       1.441839        39.2344 
  84   0.0000       1.449102        39.4321 
  85   0.0000       1.476767        40.1849 
  86   0.0000       1.562745        42.5244 
  87   0.0000       1.599949        43.5368 
  88   0.0000       1.633558        44.4514 
  89   0.0000       1.679349        45.6974 
  90   0.0000       1.751001        47.6471 
  91   0.0000       1.802360        49.0447 
  92   0.0000       1.865414        50.7605 
  93   0.0000       1.891936        51.4822 
  94   0.0000       1.911447        52.0131 
  95   0.0000       1.994197        54.2648 
  96   0.0000       2.065819        56.2138 
  97   0.0000       2.136375        58.1337 
  98   0.0000       2.170592        59.0648 
  99   0.0000       2.328770        63.3691 
 100   0.0000       2.341442        63.7139 
 101   0.0000       2.402371        65.3718 
 102   0.0000       2.415732        65.7354 
 103   0.0000       2.473235        67.3001 
 104   0.0000       2.580771        70.2264 
 105   0.0000       2.640531        71.8525 
 106   0.0000       2.654792        72.2406 
 107   0.0000       2.684824        73.0578 
 108   0.0000       2.706757        73.6546 
 109   0.0000       2.745241        74.7018 
 110   0.0000       2.761664        75.1487 
 111   0.0000       2.797551        76.1252 
 112   0.0000       2.812868        76.5420 
 113   0.0000       2.850830        77.5750 
 114   0.0000       2.867230        78.0213 
 115   0.0000       2.892706        78.7145 
 116   0.0000       2.937447        79.9320 
 117   0.0000       3.025473        82.3273 
 118   0.0000       3.037104        82.6438 
 119   0.0000       3.270180        88.9861 
 120   0.0000       3.279122        89.2295 
 121   0.0000       3.338332        90.8406 
 122   0.0000       3.441715        93.6538 
 123   0.0000       3.464973        94.2867 
 124   0.0000       3.561532        96.9142 
 125   0.0000       3.664402        99.7134 
 126   0.0000       3.707997       100.8997 
 127   0.0000       3.774708       102.7150 
 128   0.0000       3.858150       104.9856 
 129   0.0000       4.154584       113.0520 
 130   0.0000       4.466322       121.5348 
 131   0.0000       4.541128       123.5704 
 132   0.0000       4.683991       127.4579 
 133   0.0000       5.202410       141.5648 
 134   0.0000      10.417411       283.4722 
 135   0.0000      10.526487       286.4403 
 136   0.0000      24.646742       670.6720 
 137   0.0000      24.942922       678.7314 
 138   0.0000      25.352178       689.8678 
 139   0.0000      26.427756       719.1358 
 140   0.0000      26.475507       720.4352 
 141   0.0000      26.548095       722.4104 
 142   0.0000      26.620221       724.3730 
 143   0.0000      26.793400       729.0855 
 144   0.0000      26.857454       730.8285 
 145   0.0000      36.978291      1006.2304 
 146   0.0000     219.231657      5965.5967 
 147   0.0000     219.376175      5969.5292 

                    ********************************
                    * MULLIKEN POPULATION ANALYSIS *
                    ********************************

-----------------------
MULLIKEN ATOMIC CHARGES
-----------------------
   0 C :   -0.062804
   1 C :   -0.235704
   2 Cl:   -0.855251
   3 Cl:   -0.577959
   4 H :    0.335949
   5 H :    0.252249
   6 H :    0.218902
   7 C :   -0.612803
   8 H :    0.252693
   9 H :    0.212723
  10 H :    0.212779
  11 N :   -0.844750
  12 H :    0.328992
  13 H :    0.374983
Sum of atomic charges:   -1.0000000

--------------------------------
MULLIKEN REDUCED ORBITAL CHARGES
--------------------------------
  0 C s       :     3.300129  s :     3.300129
      pz      :     0.930890  p :     2.679337
      px      :     0.719280
      py      :     1.029166
      dz2     :     0.018522  d :     0.083338
      dxz     :     0.018650
      dyz     :     0.026224
      dx2y2   :     0.014398
      dxy     :     0.005545
  1 C s       :     3.221777  s :     3.221777
      pz      :     0.854093  p :     2.919591
      px      :     1.103992
      py      :     0.961506
      dz2     :     0.025594  d :     0.094337
      dxz     :     0.012253
      dyz     :     0.031771
      dx2y2   :     0.016963
      dxy     :     0.007755
  2 Cls       :     5.987636  s :     5.987636
      pz      :     3.978657  p :    11.866510
      px      :     3.898644
      py      :     3.989209
      dz2     :     0.000117  d :     0.001105
      dxz     :     0.000342
      dyz     :     0.000041
      dx2y2   :     0.000446
      dxy     :     0.000160
  3 Cls       :     5.981869  s :     5.981869
      pz      :     3.970874  p :    11.584336
      px      :     3.640231
      py      :     3.973231
      dz2     :     0.001942  d :     0.011754
      dxz     :     0.001963
      dyz     :     0.000131
      dx2y2   :     0.005935
      dxy     :     0.001782
  4 H s       :     0.664051  s :     0.664051
  5 H s       :     0.747751  s :     0.747751
  6 H s       :     0.781098  s :     0.781098
  7 C s       :     3.341323  s :     3.341323
      pz      :     1.119157  p :     3.202110
      px      :     1.080782
      py      :     1.002171
      dz2     :     0.016023  d :     0.069369
      dxz     :     0.009051
      dyz     :     0.016083
      dx2y2   :     0.022295
      dxy     :     0.005917
  8 H s       :     0.747307  s :     0.747307
  9 H s       :     0.787277  s :     0.787277
 10 H s       :     0.787221  s :     0.787221
 11 N s       :     3.685480  s :     3.685480
      pz      :     1.707522  p :     4.122752
      px      :     1.248759
      py      :     1.166470
      dz2     :     0.004051  d :     0.036518
      dxz     :     0.008070
      dyz     :     0.007304
      dx2y2   :     0.002647
      dxy     :     0.014446
 12 H s       :     0.671008  s :     0.671008
 13 H s       :     0.625017  s :     0.625017


                     *******************************
                     * LOEWDIN POPULATION ANALYSIS *
                     *******************************

----------------------
LOEWDIN ATOMIC CHARGES
----------------------
   0 C :    0.018894
   1 C :   -0.240508
   2 Cl:   -0.792765
   3 Cl:   -0.455502
   4 H :    0.178618
   5 H :    0.118148
   6 H :    0.095724
   7 C :   -0.274490
   8 H :    0.120571
   9 H :    0.106876
  10 H :    0.107661
  11 N :   -0.374598
  12 H :    0.187109
  13 H :    0.204261

-------------------------------
LOEWDIN REDUCED ORBITAL CHARGES
-------------------------------
  0 C s       :     2.884004  s :     2.884004
      pz      :     1.113908  p :     2.941140
      px      :     0.738311
      py      :     1.088922
      dz2     :     0.038862  d :     0.155961
      dxz     :     0.034198
      dyz     :     0.049895
      dx2y2   :     0.022358
      dxy     :     0.010649
  1 C s       :     2.846130  s :     2.846130
      pz      :     1.078715  p :     3.204950
      px      :     1.110529
      py      :     1.015706
      dz2     :     0.056732  d :     0.189428
      dxz     :     0.020631
      dyz     :     0.062735
      dx2y2   :     0.032061
      dxy     :     0.017269
  2 Cls       :     5.950147  s :     5.950147
      pz      :     3.970757  p :    11.841305
      px      :     3.887085
      py      :     3.983463
      dz2     :     0.000113  d :     0.001314
      dxz     :     0.000466
      dyz     :     0.000049
      dx2y2   :     0.000521
      dxy     :     0.000163
  3 Cls       :     5.840114  s :     5.840114
      pz      :     3.972500  p :    11.602717
      px      :     3.656351
      py      :     3.973865
      dz2     :     0.002084  d :     0.012672
      dxz     :     0.002108
      dyz     :     0.000138
      dx2y2   :     0.006413
      dxy     :     0.001928
  4 H s       :     0.821382  s :     0.821382
  5 H s       :     0.881852  s :     0.881852
  6 H s       :     0.904276  s :     0.904276
  7 C s       :     2.882248  s :     2.882248
      pz      :     1.107917  p :     3.284094
      px      :     1.094380
      py      :     1.081797
      dz2     :     0.023784  d :     0.108147
      dxz     :     0.012462
      dyz     :     0.027023
      dx2y2   :     0.034413
      dxy     :     0.010465
  8 H s       :     0.879429  s :     0.879429
  9 H s       :     0.893124  s :     0.893124
 10 H s       :     0.892339  s :     0.892339
 11 N s       :     3.192268  s :     3.192268
      pz      :     1.653242  p :     4.130339
      px      :     1.260118
      py      :     1.216979
      dz2     :     0.004879  d :     0.051991
      dxz     :     0.009617
      dyz     :     0.011277
      dx2y2   :     0.005772
      dxy     :     0.020446
 12 H s       :     0.812891  s :     0.812891
 13 H s       :     0.795739  s :     0.795739


                      *****************************
                      * MAYER POPULATION ANALYSIS *
                      *****************************

  NA   - Mulliken gross atomic population
  ZA   - Total nuclear charge
  QA   - Mulliken gross atomic charge
  VA   - Mayer's total valence
  BVA  - Mayer's bonded valence
  FA   - Mayer's free valence

  ATOM       NA         ZA         QA         VA         BVA        FA
  0 C      6.0628     6.0000    -0.0628     3.6375     3.6375    -0.0000
  1 C      6.2357     6.0000    -0.2357     3.5204     3.5204    -0.0000
  2 Cl    17.8553    17.0000    -0.8553     0.1932     0.1932    -0.0000
  3 Cl    17.5780    17.0000    -0.5780     0.5681     0.5681    -0.0000
  4 H      0.6641     1.0000     0.3359     0.8337     0.8337    -0.0000
  5 H      0.7478     1.0000     0.2522     0.9012     0.9012    -0.0000
  6 H      0.7811     1.0000     0.2189     0.9269     0.9269    -0.0000
  7 C      6.6128     6.0000    -0.6128     3.6837     3.6837    -0.0000
  8 H      0.7473     1.0000     0.2527     0.9016     0.9016    -0.0000
  9 H      0.7873     1.0000     0.2127     0.9173     0.9173    -0.0000
 10 H      0.7872     1.0000     0.2128     0.9059     0.9059     0.0000
 11 N      7.8448     7.0000    -0.8448     2.5895     2.5895     0.0000
 12 H      0.6710     1.0000     0.3290     0.8545     0.8545    -0.0000
 13 H      0.6250     1.0000     0.3750     0.8334     0.8334     0.0000

  Mayer bond orders larger than 0.1
B(  0-C ,  1-C ) :   1.5188 B(  0-C ,  2-Cl) :   0.2011 B(  0-C ,  5-H ) :   0.9296 
B(  0-C ,  7-C ) :   0.9512 B(  1-C ,  4-H ) :   0.2635 B(  1-C ,  6-H ) :   0.9487 
B(  1-C , 11-N ) :   0.9064 B(  3-Cl,  4-H ) :   0.5194 B(  7-C ,  8-H ) :   0.9299 
B(  7-C ,  9-H ) :   0.9490 B(  7-C , 10-H ) :   0.9254 B( 11-N , 12-H ) :   0.8560 
B( 11-N , 13-H ) :   0.8316 

-------
TIMINGS
-------

Total SCF time: 0 days 0 hours 1 min 39 sec 

Total time                  ....      99.958 sec
Sum of individual times     ....      99.914 sec  (100.0%)

Fock matrix formation       ....      98.819 sec  ( 98.9%)
Diagonalization             ....       0.050 sec  (  0.1%)
Density matrix formation    ....       0.008 sec  (  0.0%)
Population analysis         ....       0.007 sec  (  0.0%)
Initial guess               ....       0.617 sec  (  0.6%)
Orbital Transformation      ....       0.000 sec  (  0.0%)
Orbital Orthonormalization  ....       0.000 sec  (  0.0%)
DIIS solution               ....       0.014 sec  (  0.0%)
SOSCF solution              ....       0.047 sec  (  0.0%)

------------------------------------------------------------------------------
                                ORCA  MP2 
------------------------------------------------------------------------------

MP2 will be done in the AO integral direct mode
The Q1-step will be done using symmetric double matrices
Dimension of the basis                    ...  148
Memory devoted for MP2                    ... 5000 MB   
Memory needed for all in one shot         ...  424 MB
Number of MOs that can be treated together...  400      
MP2 density construction                  ... relaxed
The MP2 gradient is requested => amplitudes will be stored on disk
Total number of MOs              ...   34
Number of MOs treated per batch  ...   34 
Number of batches necessary      ...    1 
OPERATORS   0/  0 PASS   0
-----------------------------------------------
 MP2 CORRELATION ENERGY   :     -1.054197719 Eh
-----------------------------------------------


---------------------
MP2 DENSITY FORMATION
---------------------

Completing the external part of the density      ... done
Storing the unrelaxed density                    ... done

Calculating G(D)                                 ... done
Completing the Lagrangian                        ... done
Solving the Z-vector equations                   ... 

------------------------------------------------------------------------------
                           ORCA CP-SCF CALCULATION
------------------------------------------------------------------------------

Input orbitals are from        ... run.gbw
Input Perturbation             ... run.pin.tmp
Wavefunction output            ... run.pout.tmp
Perturbation mode              ... Real perturbation
Solver                         ... POPLE
Max. number of iterations      ... 128
Convergence tolerance          ... 1.000e-11
Integral handling              ... Direct
Number of perturbations        ... 1
Number of operators            ... 1
Orbital ranges used for CP-SCF:
 Operator 0:  Orbitals   0... 33  to  34...147
Variables per vector in CP-SCF ... 3876
Number of vectors sought       ... 1
     CP-SCF ITERATION   0: 
     CP-SCF ITERATION   1:      0.002050828706
     CP-SCF ITERATION   2:      0.000241785548
     CP-SCF ITERATION   3:      0.000047399781
     CP-SCF ITERATION   4:      0.000004560145
     CP-SCF ITERATION   5:      0.000000522044
     CP-SCF ITERATION   6:      0.000000035481
     CP-SCF ITERATION   7:      0.000000002665
     CP-SCF ITERATION   8:      0.000000000213
     CP-SCF ITERATION   9:      0.000000000025
     CP-SCF ITERATION  10:      0.000000000003
                                                 ... done
Finalizing the relaxed density                   ... done
Transforming P to the AO basis                   ... done
Storing the relaxed density                      ... done

------------------------------------
ENERGY WEIGHTED DENSITY FINALIZATION
------------------------------------

Gathering the parts of the W-matrix              ...                                                      done
Forming the Z-density                            ... done
Transforming Z to the AO basis                   ... done
Calculating G(Z)                                 ... done
Finalizing the W-matrix                          ...                                                      done
Transforming W to the AO basis and storing       ... done

                *********************************************
                * UNRELAXED MP2 DENSITY POPULATION ANALYSIS *
                *********************************************

------------------------------------------------------------------------------
                           ORCA POPULATION ANALYSIS
------------------------------------------------------------------------------
Input electron density              ... run.pmp2ur
BaseName (.gbw .S,...)              ... run

                    ********************************
                    * MULLIKEN POPULATION ANALYSIS *
                    ********************************

-----------------------
MULLIKEN ATOMIC CHARGES
-----------------------
   0 C :   -0.082221
   1 C :   -0.234896
   2 Cl:   -0.847351
   3 Cl:   -0.571167
   4 H :    0.329691
   5 H :    0.254266
   6 H :    0.221300
   7 C :   -0.618745
   8 H :    0.254542
   9 H :    0.215232
  10 H :    0.214835
  11 N :   -0.837308
  12 H :    0.328384
  13 H :    0.373438
Sum of atomic charges:   -1.0000000

--------------------------------
MULLIKEN REDUCED ORBITAL CHARGES
--------------------------------
  0 C s       :     3.297030  s :     3.297030
      pz      :     0.928035  p :     2.684323
      px      :     0.730636
      py      :     1.025652
      dz2     :     0.021919  d :     0.100868
      dxz     :     0.021755
      dyz     :     0.030358
      dx2y2   :     0.017613
      dxy     :     0.009224
  1 C s       :     3.219186  s :     3.219186
      pz      :     0.851897  p :     2.900519
      px      :     1.089275
      py      :     0.959348
      dz2     :     0.029138  d :     0.115190
      dxz     :     0.017023
      dyz     :     0.035663
      dx2y2   :     0.021299
      dxy     :     0.012068
  2 Cls       :     5.980608  s :     5.980608
      pz      :     3.962436  p :    11.816069
      px      :     3.880147
      py      :     3.973486
      dz2     :     0.009977  d :     0.050674
      dxz     :     0.010359
      dyz     :     0.009797
      dx2y2   :     0.010403
      dxy     :     0.010137
  3 Cls       :     5.974234  s :     5.974234
      pz      :     3.954288  p :    11.535602
      px      :     3.624545
      py      :     3.956769
      dz2     :     0.011870  d :     0.061332
      dxz     :     0.011875
      dyz     :     0.010034
      dx2y2   :     0.015866
      dxy     :     0.011686
  4 H s       :     0.670309  s :     0.670309
  5 H s       :     0.745734  s :     0.745734
  6 H s       :     0.778700  s :     0.778700
  7 C s       :     3.337790  s :     3.337790
      pz      :     1.115109  p :     3.191360
      px      :     1.077482
      py      :     0.998769
      dz2     :     0.020117  d :     0.089594
      dxz     :     0.013340
      dyz     :     0.019808
      dx2y2   :     0.025989
      dxy     :     0.010340
  8 H s       :     0.745458  s :     0.745458
  9 H s       :     0.784768  s :     0.784768
 10 H s       :     0.785165  s :     0.785165
 11 N s       :     3.680910  s :     3.680910
      pz      :     1.695551  p :     4.100059
      px      :     1.243432
      py      :     1.161076
      dz2     :     0.008359  d :     0.056339
      dxz     :     0.012119
      dyz     :     0.011256
      dx2y2   :     0.006603
      dxy     :     0.018003
 12 H s       :     0.671616  s :     0.671616
 13 H s       :     0.626562  s :     0.626562


                     *******************************
                     * LOEWDIN POPULATION ANALYSIS *
                     *******************************

----------------------
LOEWDIN ATOMIC CHARGES
----------------------
   0 C :    0.000074
   1 C :   -0.242997
   2 Cl:   -0.784857
   3 Cl:   -0.448793
   4 H :    0.174197
   5 H :    0.121806
   6 H :    0.099884
   7 C :   -0.285891
   8 H :    0.124029
   9 H :    0.110720
  10 H :    0.111175
  11 N :   -0.372862
  12 H :    0.188498
  13 H :    0.205016

-------------------------------
LOEWDIN REDUCED ORBITAL CHARGES
-------------------------------
  0 C s       :     2.883046  s :     2.883046
      pz      :     1.107117  p :     2.939968
      px      :     0.749076
      py      :     1.083776
      dz2     :     0.044121  d :     0.176912
      dxz     :     0.037284
      dyz     :     0.054507
      dx2y2   :     0.026314
      dxy     :     0.014685
  1 C s       :     2.846829  s :     2.846829
      pz      :     1.072355  p :     3.182290
      px      :     1.097221
      py      :     1.012714
      dz2     :     0.061955  d :     0.213878
      dxz     :     0.026011
      dyz     :     0.066809
      dx2y2   :     0.036978
      dxy     :     0.022125
  2 Cls       :     5.942907  s :     5.942907
      pz      :     3.954344  p :    11.790347
      px      :     3.868363
      py      :     3.967640
      dz2     :     0.010069  d :     0.051603
      dxz     :     0.010674
      dyz     :     0.009854
      dx2y2   :     0.010757
      dxy     :     0.010248
  3 Cls       :     5.832920  s :     5.832920
      pz      :     3.955813  p :    11.552903
      px      :     3.639770
      py      :     3.957321
      dz2     :     0.012115  d :     0.062969
      dxz     :     0.012170
      dyz     :     0.010060
      dx2y2   :     0.016635
      dxy     :     0.011988
  4 H s       :     0.825803  s :     0.825803
  5 H s       :     0.878194  s :     0.878194
  6 H s       :     0.900116  s :     0.900116
  7 C s       :     2.883009  s :     2.883009
      pz      :     1.103707  p :     3.271451
      px      :     1.090918
      py      :     1.076825
      dz2     :     0.028320  d :     0.131431
      dxz     :     0.017299
      dyz     :     0.031642
      dx2y2   :     0.038840
      dxy     :     0.015330
  8 H s       :     0.875971  s :     0.875971
  9 H s       :     0.889280  s :     0.889280
 10 H s       :     0.888825  s :     0.888825
 11 N s       :     3.191196  s :     3.191196
      pz      :     1.641935  p :     4.107785
      px      :     1.254913
      py      :     1.210936
      dz2     :     0.009448  d :     0.073881
      dxz     :     0.014001
      dyz     :     0.015876
      dx2y2   :     0.010024
      dxy     :     0.024533
 12 H s       :     0.811502  s :     0.811502
 13 H s       :     0.794984  s :     0.794984


                      *****************************
                      * MAYER POPULATION ANALYSIS *
                      *****************************

  NA   - Mulliken gross atomic population
  ZA   - Total nuclear charge
  QA   - Mulliken gross atomic charge
  VA   - Mayer's total valence
  BVA  - Mayer's bonded valence
  FA   - Mayer's free valence

  ATOM       NA         ZA         QA         VA         BVA        FA
  0 C      6.0822     6.0000    -0.0822     3.7456     3.4082     0.3374
  1 C      6.2349     6.0000    -0.2349     3.6405     3.2930     0.3475
  2 Cl    17.8474    17.0000    -0.8474     0.5926     0.1806     0.4120
  3 Cl    17.5712    17.0000    -0.5712     0.9276     0.5295     0.3981
  4 H      0.6703     1.0000     0.3297     0.8377     0.7824     0.0553
  5 H      0.7457     1.0000     0.2543     0.9026     0.8644     0.0382
  6 H      0.7787     1.0000     0.2213     0.9278     0.8876     0.0402
  7 C      6.6187     6.0000    -0.6187     3.7991     3.5238     0.2753
  8 H      0.7455     1.0000     0.2545     0.9029     0.8657     0.0372
  9 H      0.7848     1.0000     0.2152     0.9186     0.8808     0.0378
 10 H      0.7852     1.0000     0.2148     0.9079     0.8675     0.0403
 11 N      7.8373     7.0000    -0.8373     2.7964     2.4601     0.3363
 12 H      0.6716     1.0000     0.3284     0.8571     0.8165     0.0407
 13 H      0.6266     1.0000     0.3734     0.8367     0.7972     0.0395

  Mayer bond orders larger than 0.1
B(  0-C ,  1-C ) :   1.4074 B(  0-C ,  2-Cl) :   0.1917 B(  0-C ,  5-H ) :   0.8934 
B(  0-C ,  7-C ) :   0.8985 B(  1-C ,  4-H ) :   0.2463 B(  1-C ,  6-H ) :   0.9111 
B(  1-C , 11-N ) :   0.8516 B(  3-Cl,  4-H ) :   0.4940 B(  7-C ,  8-H ) :   0.8950 
B(  7-C ,  9-H ) :   0.9130 B(  7-C , 10-H ) :   0.8890 B( 11-N , 12-H ) :   0.8194 
B( 11-N , 13-H ) :   0.7968 


                *******************************************
                * RELAXED MP2 DENSITY POPULATION ANALYSIS *
                *******************************************

------------------------------------------------------------------------------
                           ORCA POPULATION ANALYSIS
------------------------------------------------------------------------------
Input electron density              ... run.pmp2re
BaseName (.gbw .S,...)              ... run

                    ********************************
                    * MULLIKEN POPULATION ANALYSIS *
                    ********************************

-----------------------
MULLIKEN ATOMIC CHARGES
-----------------------
   0 C :   -0.123388
   1 C :   -0.218568
   2 Cl:   -0.805940
   3 Cl:   -0.522673
   4 H :    0.293774
   5 H :    0.234836
   6 H :    0.218740
   7 C :   -0.660787
   8 H :    0.256374
   9 H :    0.218137
  10 H :    0.215458
  11 N :   -0.793062
  12 H :    0.322777
  13 H :    0.364324
Sum of atomic charges:   -1.0000000

--------------------------------
MULLIKEN REDUCED ORBITAL CHARGES
--------------------------------
  0 C s       :     3.280667  s :     3.280667
      pz      :     0.911411  p :     2.753056
      px      :     0.838714
      py      :     1.002931
      dz2     :     0.019976  d :     0.089666
      dxz     :     0.017939
      dyz     :     0.027170
      dx2y2   :     0.015650
      dxy     :     0.008931
  1 C s       :     3.218107  s :     3.218107
      pz      :     0.890080  p :     2.893475
      px      :     1.029106
      py      :     0.974289
      dz2     :     0.025771  d :     0.106985
      dxz     :     0.016474
      dyz     :     0.033771
      dx2y2   :     0.019440
      dxy     :     0.011529
  2 Cls       :     5.980115  s :     5.980115
      pz      :     3.953238  p :    11.775042
      px      :     3.853044
      py      :     3.968760
      dz2     :     0.009985  d :     0.050783
      dxz     :     0.010400
      dyz     :     0.009803
      dx2y2   :     0.010446
      dxy     :     0.010150
  3 Cls       :     5.968326  s :     5.968326
      pz      :     3.950335  p :    11.493225
      px      :     3.590904
      py      :     3.951986
      dz2     :     0.011841  d :     0.061122
      dxz     :     0.011821
      dyz     :     0.010028
      dx2y2   :     0.015754
      dxy     :     0.011678
  4 H s       :     0.706226  s :     0.706226
  5 H s       :     0.765164  s :     0.765164
  6 H s       :     0.781260  s :     0.781260
  7 C s       :     3.327219  s :     3.327219
      pz      :     1.138571  p :     3.254770
      px      :     1.089090
      py      :     1.027110
      dz2     :     0.017980  d :     0.078797
      dxz     :     0.011913
      dyz     :     0.016646
      dx2y2   :     0.022497
      dxy     :     0.009762
  8 H s       :     0.743626  s :     0.743626
  9 H s       :     0.781863  s :     0.781863
 10 H s       :     0.784542  s :     0.784542
 11 N s       :     3.653623  s :     3.653623
      pz      :     1.685998  p :     4.087196
      px      :     1.242911
      py      :     1.158287
      dz2     :     0.008340  d :     0.052243
      dxz     :     0.011314
      dyz     :     0.010471
      dx2y2   :     0.006174
      dxy     :     0.015944
 12 H s       :     0.677223  s :     0.677223
 13 H s       :     0.635676  s :     0.635676


                     *******************************
                     * LOEWDIN POPULATION ANALYSIS *
                     *******************************

----------------------
LOEWDIN ATOMIC CHARGES
----------------------
   0 C :   -0.066799
   1 C :   -0.225916
   2 Cl:   -0.753817
   3 Cl:   -0.411753
   4 H :    0.161358
   5 H :    0.117620
   6 H :    0.105673
   7 C :   -0.319255
   8 H :    0.129684
   9 H :    0.116204
  10 H :    0.115922
  11 N :   -0.369335
  12 H :    0.192805
  13 H :    0.207608

-------------------------------
LOEWDIN REDUCED ORBITAL CHARGES
-------------------------------
  0 C s       :     2.879285  s :     2.879285
      pz      :     1.097204  p :     3.019249
      px      :     0.845266
      py      :     1.076779
      dz2     :     0.044001  d :     0.168265
      dxz     :     0.032421
      dyz     :     0.052391
      dx2y2   :     0.024700
      dxy     :     0.014752
  1 C s       :     2.853749  s :     2.853749
      pz      :     1.090216  p :     3.163887
      px      :     1.054653
      py      :     1.019018
      dz2     :     0.058241  d :     0.208280
      dxz     :     0.027454
      dyz     :     0.065557
      dx2y2   :     0.035416
      dxy     :     0.021611
  2 Cls       :     5.944011  s :     5.944011
      pz      :     3.947818  p :    11.758043
      px      :     3.845301
      py      :     3.964924
      dz2     :     0.010084  d :     0.051762
      dxz     :     0.010722
      dyz     :     0.009861
      dx2y2   :     0.010832
      dxy     :     0.010263
  3 Cls       :     5.834186  s :     5.834186
      pz      :     3.953138  p :    11.514722
      px      :     3.607572
      py      :     3.954011
      dz2     :     0.012098  d :     0.062845
      dxz     :     0.012133
      dyz     :     0.010055
      dx2y2   :     0.016560
      dxy     :     0.011999
  4 H s       :     0.838642  s :     0.838642
  5 H s       :     0.882380  s :     0.882380
  6 H s       :     0.894327  s :     0.894327
  7 C s       :     2.886177  s :     2.886177
      pz      :     1.117440  p :     3.311854
      px      :     1.101406
      py      :     1.093009
      dz2     :     0.026386  d :     0.121225
      dxz     :     0.016073
      dyz     :     0.028164
      dx2y2   :     0.035443
      dxy     :     0.015158
  8 H s       :     0.870316  s :     0.870316
  9 H s       :     0.883796  s :     0.883796
 10 H s       :     0.884078  s :     0.884078
 11 N s       :     3.190914  s :     3.190914
      pz      :     1.635327  p :     4.108348
      px      :     1.258780
      py      :     1.214241
      dz2     :     0.009473  d :     0.070072
      dxz     :     0.013249
      dyz     :     0.015210
      dx2y2   :     0.009556
      dxy     :     0.022584
 12 H s       :     0.807195  s :     0.807195
 13 H s       :     0.792392  s :     0.792392


                      *****************************
                      * MAYER POPULATION ANALYSIS *
                      *****************************

  NA   - Mulliken gross atomic population
  ZA   - Total nuclear charge
  QA   - Mulliken gross atomic charge
  VA   - Mayer's total valence
  BVA  - Mayer's bonded valence
  FA   - Mayer's free valence

  ATOM       NA         ZA         QA         VA         BVA        FA
  0 C      6.1234     6.0000    -0.1234     3.8403     3.5266     0.3137
  1 C      6.2186     6.0000    -0.2186     3.7517     3.4202     0.3316
  2 Cl    17.8059    17.0000    -0.8059     0.6653     0.2606     0.4047
  3 Cl    17.5227    17.0000    -0.5227     0.9903     0.5983     0.3921
  4 H      0.7062     1.0000     0.2938     0.8665     0.8118     0.0548
  5 H      0.7652     1.0000     0.2348     0.9150     0.8782     0.0368
  6 H      0.7813     1.0000     0.2187     0.9279     0.8885     0.0394
  7 C      6.6608     6.0000    -0.6608     3.8195     3.5479     0.2716
  8 H      0.7436     1.0000     0.2564     0.9039     0.8674     0.0364
  9 H      0.7819     1.0000     0.2181     0.9160     0.8790     0.0370
 10 H      0.7845     1.0000     0.2155     0.9065     0.8672     0.0393
 11 N      7.7931     7.0000    -0.7931     2.8683     2.5369     0.3314
 12 H      0.6772     1.0000     0.3228     0.8611     0.8209     0.0401
 13 H      0.6357     1.0000     0.3643     0.8489     0.8103     0.0386

  Mayer bond orders larger than 0.1
B(  0-C ,  1-C ) :   1.4476 B(  0-C ,  2-Cl) :   0.2071 B(  0-C ,  5-H ) :   0.8951 
B(  0-C ,  7-C ) :   0.9172 B(  1-C ,  4-H ) :   0.2387 B(  1-C ,  6-H ) :   0.8998 
B(  1-C , 11-N ) :   0.9049 B(  3-Cl,  4-H ) :   0.5231 B(  7-C ,  8-H ) :   0.8889 
B(  7-C ,  9-H ) :   0.9072 B(  7-C , 10-H ) :   0.8835 B( 11-N , 12-H ) :   0.8168 
B( 11-N , 13-H ) :   0.7956 


----------------------------------
MP2 DERIVATIVE INTEGRAL GENERATION
----------------------------------


Input Wavefunction Amplitudes       ... run.mp2tsaa.tmp.proc0
Input Correlated Electron Density   ... run.pmp2re
Input Energy Weighted Density       ... run.wmp2.tmp
Input SCF Electron Density          ... run.scfp.tmp

One-Electron Terms    ...
                        ... One-Electron Terms done
Prescreening matrices              ... done

Batch handling in the gradient evaluation:
Memory available                      ... 5000.0 MB
Memory per occupied orbital in Q2     ...    5.7 MB
Memory per occupied orbital in Q3     ...    0.0 MB
Total memory requirement per |i>      ...    5.7 MB
Max. Number of orbitals possible      ...    875
Number of orbitals treated per batch  ...     34
Number of batches to be done          ...      1
Batch   0: i=    0 ...    33

---------------------------------------
MP2 TOTAL ENERGY:    -1092.818301454 Eh
---------------------------------------

-----------------------------------
NORM OF THE MP2 GRADIENT:  0.008206
-----------------------------------

-------------------------   --------------------
FINAL SINGLE POINT ENERGY     -1092.818301454246
-------------------------   --------------------

------------------------------------------------------------------------------
                         ORCA GEOMETRY RELAXATION STEP
------------------------------------------------------------------------------

Reading the OPT-File                    .... done
Getting information on internals        .... done
Copying old internal coords+grads       .... done
Making the new internal coordinates     .... (new redundants).... done
Validating the new internal coordinates .... (new redundants).... done
Calculating the B-matrix                .... done
Calculating the G,G- and P matrices     .... done
Transforming gradient to internals      .... done
Projecting the internal gradient        .... done
Number of atoms                         ....  14
Number of internal coordinates          .... 103
Current Energy                          .... -1092.818301454 Eh
Current gradient norm                   ....     0.008205715 Eh/bohr
Maximum allowed component of the step   ....  0.010
Current trust radius                    ....  0.100
Evaluating the initial hessian          .... done
Projecting the Hessian                  .... done
Forming the augmented Hessian           .... done
Diagonalizing the augmented Hessian     .... done
Last element of RFO vector              ....  0.999912901
Lowest eigenvalues of augmented Hessian:
 -0.000059302  0.100000028  0.100055685  0.104524151  0.104898298
Length of the computed step             ....  0.013199244
The final length of the internal step   ....  0.013199244
Converting the step to cartesian space:
 Initial RMS(Int)=    0.0013005601
Transforming coordinates:
 Iter   0:  RMS(Cart)=    0.0024121835 RMS(Int)=    0.0013009552
 Iter   1:  RMS(Cart)=    0.0000017561 RMS(Int)=    0.0000009078
 Iter   2:  RMS(Cart)=    0.0000000025 RMS(Int)=    0.0000000018
done
Storing new coordinates                 .... done

                                .--------------------.
          ----------------------|Geometry convergence|-------------------------
          Item                value                   Tolerance       Converged
          ---------------------------------------------------------------------
          RMS gradient        0.0004979282            0.0005000000      YES
          MAX gradient        0.0035783821            0.0020000000      NO
          RMS step            0.0013005601            0.0070000000      YES
          MAX step            0.0071559154            0.0100000000      YES
          ........................................................
          Max(Bonds)      0.0038      Max(Angles)    0.08
          Max(Dihed)        0.14      Max(Improp)    0.00
          ---------------------------------------------------------------------

The optimization has not yet converged - more geometry cycles are needed


    ---------------------------------------------------------------------------
                         Redundant Internal Coordinates
                            (Angstroem and degrees)

        Definition                    Value    dE/dq     Step     New-Value
    ----------------------------------------------------------------------------
     1. B(C   1,C   0)                1.3635  0.000552 -0.0006    1.3630   
     2. B(Cl  2,C   1)                3.2537 -0.001110  0.0011    3.2548   
     3. B(Cl  2,C   0)                2.6006 -0.001639  0.0024    2.6030   
     4. B(H   4,C   1)                1.5278 -0.003578  0.0038    1.5316   
     5. B(H   4,Cl  3)                1.4706 -0.002066  0.0022    1.4728   
     6. B(H   5,C   0)                1.0849  0.000405 -0.0004    1.0845   
     7. B(H   5,Cl  2)                2.6211 -0.000955  0.0007    2.6218   
     8. B(H   6,C   1)                1.0916  0.000087 -0.0001    1.0915   
     9. B(C   7,C   0)                1.4916  0.000010  0.0001    1.4917   
    10. B(C   7,Cl  2)                3.2127 -0.001080  0.0012    3.2139   
    11. B(H   8,C   7)                1.0886  0.000037 -0.0001    1.0886   
    12. B(H   8,Cl  2)                2.9600 -0.000182 -0.0001    2.9599   
    13. B(H   9,C   7)                1.0914 -0.000022  0.0000    1.0914   
    14. B(H  10,C   7)                1.0981 -0.000033  0.0000    1.0981   
    15. B(N  11,C   1)                1.4381  0.000058 -0.0000    1.4381   
    16. B(H  12,N  11)                1.0134  0.000012 -0.0000    1.0134   
    17. B(H  13,N  11)                1.0166  0.000021 -0.0001    1.0165   
    18. B(H  13,Cl  2)                2.8767 -0.000065 -0.0000    2.8767   
    19. A(C   1,C   0,Cl  2)          106.08  0.000018   -0.04    106.04   
    20. A(Cl  2,C   0,H   5)           79.07  0.000226   -0.08     78.99   
    21. A(C   1,C   0,H   5)          117.01 -0.000005    0.00    117.01   
    22. A(Cl  2,C   0,C   7)           99.90  0.000165   -0.05     99.85   
    23. A(C   1,C   0,C   7)          123.17 -0.000102    0.04    123.21   
    24. A(H   5,C   0,C   7)          117.05 -0.000022    0.02    117.07   
    25. A(C   0,C   1,Cl  2)           50.18 -0.000190    0.05     50.23   
    26. A(H   6,C   1,N  11)          115.33 -0.000009   -0.01    115.32   
    27. A(H   4,C   1,H   6)           99.02  0.000169   -0.06     98.96   
    28. A(C   0,C   1,N  11)          121.48  0.000043    0.01    121.49   
    29. A(C   0,C   1,H   6)          118.11 -0.000074    0.02    118.13   
    30. A(C   0,C   1,H   4)           89.69 -0.000052    0.02     89.71   
    31. A(Cl  2,C   1,N  11)           90.29  0.000190   -0.03     90.26   
    32. A(Cl  2,C   1,H   6)          110.28 -0.000087    0.04    110.32   
    33. A(Cl  2,C   1,H   4)          137.91 -0.000228    0.07    137.98   
    34. A(H   4,C   1,N  11)          104.03 -0.000026   -0.01    104.02   
    35. A(C   0,Cl  2,C   1)           23.75  0.000171   -0.01     23.73   
    36. A(C   1,Cl  2,C   7)           45.71  0.000215   -0.02     45.69   
    37. A(C   0,Cl  2,C   7)           27.22  0.000079   -0.00     27.21   
    38. A(C   1,H   4,Cl  3)          166.47  0.000040   -0.01    166.46   
    39. A(Cl  2,C   7,H   9)           97.43  0.000023   -0.00     97.42   
    40. A(C   0,C   7,Cl  2)           52.88 -0.000244    0.05     52.94   
    41. A(H   8,C   7,H   9)          108.59 -0.000005   -0.01    108.58   
    42. A(C   0,C   7,H   9)          111.07  0.000027   -0.01    111.05   
    43. A(H   9,C   7,H  10)          108.67  0.000059   -0.03    108.64   
    44. A(C   0,C   7,H   8)          109.97  0.000134    0.00    109.98   
    45. A(H   8,C   7,H  10)          108.96 -0.000249    0.02    108.98   
    46. A(Cl  2,C   7,H   8)           66.89  0.000408   -0.06     66.83   
    47. A(C   0,C   7,H  10)          109.54  0.000027    0.03    109.57   
    48. A(Cl  2,C   7,H  10)          153.14 -0.000119    0.05    153.19   
    49. A(H  12,N  11,H  13)          108.94 -0.000005   -0.01    108.93   
    50. A(C   1,N  11,H  13)          106.49  0.000075    0.01    106.50   
    51. A(C   1,N  11,H  12)          111.32  0.000026   -0.01    111.31   
    52. D(Cl  2,C   1,C   0,C   7)    113.71  0.000174   -0.08    113.64   
    53. D(N  11,C   1,C   0,C   7)    173.52  0.000226   -0.08    173.44   
    54. D(H   4,C   1,C   0,Cl  2)    166.13 -0.000005   -0.01    166.13   
    55. D(N  11,C   1,C   0,Cl  2)     59.81  0.000052   -0.01     59.81   
    56. D(N  11,C   1,C   0,H   5)    -25.91 -0.000216    0.10    -25.81   
    57. D(H   4,C   1,C   0,H   5)     80.41 -0.000272    0.10     80.51   
    58. D(H   6,C   1,C   0,Cl  2)    -93.80  0.000153   -0.06    -93.86   
    59. D(Cl  2,C   1,C   0,H   5)    -85.72 -0.000268    0.11    -85.62   
    60. D(H   4,C   1,C   0,C   7)    -80.16  0.000170   -0.08    -80.24   
    61. D(H   6,C   1,C   0,H   5)   -179.53 -0.000115    0.05   -179.48   
    62. D(H   6,C   1,C   0,C   7)     19.91  0.000327   -0.14     19.77   
    63. D(C   7,Cl  2,C   0,C   1)    128.93 -0.000024   -0.00    128.92   
    64. D(C   1,Cl  2,C   0,H   5)    115.19  0.000045   -0.01    115.18   
    65. D(C   7,Cl  2,C   0,H   5)   -115.88  0.000022   -0.02   -115.90   
    66. D(C   7,Cl  2,C   1,H   4)    -50.76  0.000111   -0.04    -50.80   
    67. D(C   1,Cl  2,C   0,C   7)   -128.93  0.000024    0.00   -128.92   
    68. D(C   7,Cl  2,C   1,H   6)     80.43 -0.000026   -0.00     80.42   
    69. D(C   0,Cl  2,C   1,H   4)    -20.95  0.000089   -0.04    -20.99   
    70. D(C   7,Cl  2,C   1,N  11)   -162.32  0.000027   -0.02   -162.33   
    71. D(C   0,Cl  2,C   1,N  11)   -132.51  0.000005   -0.01   -132.52   
    72. D(C   0,Cl  2,C   1,H   6)    110.23 -0.000047    0.00    110.24   
    73. D(C   7,Cl  2,C   1,C   0)    -29.81  0.000021   -0.01    -29.81   
    74. D(Cl  3,H   4,C   1,Cl  2)   -139.42 -0.000082    0.02   -139.40   
    75. D(Cl  3,H   4,C   1,N  11)    -32.89  0.000056   -0.01    -32.90   
    76. D(Cl  3,H   4,C   1,H   6)     86.20  0.000101   -0.05     86.16   
    77. D(Cl  3,H   4,C   1,C   0)   -155.36  0.000030   -0.02   -155.39   
    78. D(H   9,C   7,C   0,C   1)    -33.50 -0.000213    0.10    -33.41   
    79. D(H   8,C   7,C   0,Cl  2)    -36.99 -0.000207    0.05    -36.94   
    80. D(H   8,C   7,C   0,H   5)     45.71  0.000127   -0.06     45.65   
    81. D(H   9,C   7,C   0,H   5)    165.94  0.000226   -0.08    165.86   
    82. D(H   8,C   7,C   0,C   1)   -153.74 -0.000312    0.12   -153.61   
    83. D(H  10,C   7,Cl  2,C   1)     81.49 -0.000257    0.12     81.61   
    84. D(H   9,C   7,Cl  2,C   1)    -84.90  0.000044    0.01    -84.89   
    85. D(H   9,C   7,Cl  2,C   0)   -110.85 -0.000053    0.02   -110.83   
    86. D(H   8,C   7,Cl  2,C   1)    168.01  0.000057    0.02    168.04   
    87. D(H   8,C   7,Cl  2,C   0)    142.06 -0.000040    0.03    142.09   
    88. D(C   0,C   7,Cl  2,C   1)     25.95  0.000097   -0.01     25.95   
    89. D(Cl  2,C   7,C   0,H   5)     82.71  0.000334   -0.11     82.59   
    90. D(Cl  2,C   7,C   0,C   1)   -116.74 -0.000105    0.07   -116.67   
    91. D(H  10,C   7,C   0,Cl  2)   -156.72  0.000000    0.00   -156.72   
    92. D(H  10,C   7,C   0,H   5)    -74.01  0.000334   -0.11    -74.12   
    93. D(H  10,C   7,Cl  2,C   0)     55.54 -0.000354    0.13     55.67   
    94. D(H  10,C   7,C   0,C   1)     86.54 -0.000105    0.07     86.61   
    95. D(H   9,C   7,C   0,Cl  2)     83.24 -0.000108    0.03     83.26   
    96. D(H  13,N  11,C   1,Cl  2)      6.66 -0.000087    0.02      6.68   
    97. D(H  13,N  11,C   1,H   4)   -133.36  0.000091   -0.04   -133.39   
    98. D(H  13,N  11,C   1,H   6)    119.36 -0.000089    0.05    119.41   
    99. D(H  13,N  11,C   1,C   0)    -34.94  0.000026   -0.01    -34.95   
   100. D(H  12,N  11,C   1,Cl  2)    125.28 -0.000033    0.00    125.28   
   101. D(H  12,N  11,C   1,H   4)    -14.74  0.000145   -0.06    -14.79   
   102. D(H  12,N  11,C   1,H   6)   -122.02 -0.000035    0.03   -121.99   
   103. D(H  12,N  11,C   1,C   0)     83.68  0.000080   -0.04     83.65   
    ----------------------------------------------------------------------------




    ----------------------------------------------------------------------------
                                  WARNING !!!
       The optimization did not converge but reached the maximum number of
       optimization cycles.
       Please check your results very carefully.
    ----------------------------------------------------------------------------



                            ***************************************
                            *     ORCA property calculations      *
                            ***************************************

                                    ---------------------
                                    Active property flags
                                    ---------------------
   (+) Dipole Moment


------------------------------------------------------------------------------
                       ORCA ELECTRIC PROPERTIES CALCULATION
------------------------------------------------------------------------------

Dipole Moment Calculation                       ... on
Quadrupole Moment Calculation                   ... off
Polarizability Calculation                      ... off
GBWName                                         ... run.gbw
Electron density file                           ... run.scfp.tmp
The origin for moment calculation is the CENTER OF MASS  = (-0.703081,  0.213405  0.742245)

-------------
DIPOLE MOMENT
-------------
                                X             Y             Z
Electronic contribution:     -1.18973       2.75328       0.88324
Nuclear contribution   :     -0.62889      -3.05013      -0.64444
                        -----------------------------------------
Total Dipole Moment    :     -1.81862      -0.29685       0.23880
                        -----------------------------------------
Magnitude (a.u.)       :      1.85810
Magnitude (Debye)      :      4.72292


                         *** MP2 UNRELAXED DENSITY ***

------------------------------------------------------------------------------
                       ORCA ELECTRIC PROPERTIES CALCULATION
------------------------------------------------------------------------------

Dipole Moment Calculation                       ... on
Quadrupole Moment Calculation                   ... off
Polarizability Calculation                      ... off
GBWName                                         ... run.gbw
Electron density file                           ... run.pmp2ur
The origin for moment calculation is the CENTER OF MASS  = (-0.703081,  0.213405  0.742245)

-------------
DIPOLE MOMENT
-------------
                                X             Y             Z
Electronic contribution:     -1.18292       2.76173       0.90542
Nuclear contribution   :     -0.62889      -3.05013      -0.64444
                        -----------------------------------------
Total Dipole Moment    :     -1.81181      -0.28840       0.26099
                        -----------------------------------------
Magnitude (a.u.)       :      1.85309
Magnitude (Debye)      :      4.71018


                           *** MP2 RELAXED DENSITY ***

------------------------------------------------------------------------------
                       ORCA ELECTRIC PROPERTIES CALCULATION
------------------------------------------------------------------------------

Dipole Moment Calculation                       ... on
Quadrupole Moment Calculation                   ... off
Polarizability Calculation                      ... off
GBWName                                         ... run.gbw
Electron density file                           ... run.pmp2re
The origin for moment calculation is the CENTER OF MASS  = (-0.703081,  0.213405  0.742245)

-------------
DIPOLE MOMENT
-------------
                                X             Y             Z
Electronic contribution:     -1.20197       2.85027       1.07572
Nuclear contribution   :     -0.62889      -3.05013      -0.64444
                        -----------------------------------------
Total Dipole Moment    :     -1.83086      -0.19986       0.43129
                        -----------------------------------------
Magnitude (a.u.)       :      1.89156
Magnitude (Debye)      :      4.80797


Timings for individual modules:

Sum of individual times         ...      213.405 sec (=   3.557 min)
GTO integral calculation        ...        0.351 sec (=   0.006 min)   0.2 %
SCF iterations                  ...       99.975 sec (=   1.666 min)  46.8 %
MP2 module                      ...      112.979 sec (=   1.883 min)  52.9 %
Geometry relaxation             ...        0.100 sec (=   0.002 min)   0.0 %
                             ****ORCA TERMINATED NORMALLY****
TOTAL RUN TIME: 0 days 0 hours 3 minutes 33 seconds 878 msec
