
                                 *****************
                                 * O   R   C   A *
                                 *****************

           --- An Ab Initio, DFT and Semiempirical electronic structure package ---

                  #######################################################
                  #                        -***-                        #
                  #  Department of molecular theory and spectroscopy    #
                  #              Directorship: Frank Neese              #
                  # Max Planck Institute for Chemical Energy Conversion #
                  #                  D-45470 Muelheim/Ruhr              #
                  #                       Germany                       #
                  #                                                     #
                  #                  All rights reserved                #
                  #                        -***-                        #
                  #######################################################


                         Program Version 4.0.1.2 - RELEASE -


 With contributions from (in alphabetic order):
   Daniel Aravena         : Magnetic Properties
   Michael Atanasov       : Ab Initio Ligand Field Theory
   Ute Becker             : Parallelization
   Martin Brehm           : Molecular dynamics
   Dmytro Bykov           : SCF Hessian
   Vijay G. Chilkuri      : MRCI spin determinant printing
   Dipayan Datta          : RHF DLPNO-CCSD density
   Achintya Kumar Dutta   : EOM-CC, STEOM-CC
   Dmitry Ganyushin       : Spin-Orbit,Spin-Spin,Magnetic field MRCI
   Yang Guo               : DLPNO-NEVPT2, CIM, IAO-localization
   Andreas Hansen         : Spin unrestricted coupled pair/coupled cluster methods
   Lee Huntington         : MR-EOM, pCC
   Robert Izsak           : Overlap fitted RIJCOSX, COSX-SCS-MP3, EOM
   Christian Kollmar      : KDIIS, OOCD, Brueckner-CCSD(T), CCSD density
   Simone Kossmann        : Meta GGA functionals, TD-DFT gradient, OOMP2, MP2 Hessian
   Martin Krupicka        : AUTO-CI
   Dagmar Lenk            : GEPOL surface
   Dimitrios Liakos       : Extrapolation schemes; parallel MDCI
   Dimitrios Manganas     : ROCIS; embedding schemes
   Dimitrios Pantazis     : SARC Basis sets
   Taras Petrenko         : DFT Hessian,TD-DFT gradient, ASA, ECA, R-Raman, ABS, FL, XAS/XES, NRVS
   Peter Pinski           : DLPNO-MP2
   Christoph Reimann      : Effective Core Potentials
   Marius Retegan         : Local ZFS, SOC
   Christoph Riplinger    : Optimizer, TS searches, QM/MM, DLPNO-CCSD(T), (RO)-DLPNO pert. Triples
   Tobias Risthaus        : Range-separated hybrids, TD-DFT gradient, RPA, STAB
   Michael Roemelt        : Restricted open shell CIS
   Masaaki Saitow         : Open-shell DLPNO
   Barbara Sandhoefer     : DKH picture change effects
   Kantharuban Sivalingam : CASSCF convergence, NEVPT2, FIC-MRCI
   Georgi Stoychev        : AutoAux
   Boris Wezisla          : Elementary symmetry handling
   Frank Wennmohs         : Technical directorship


 We gratefully acknowledge several colleagues who have allowed us to
 interface, adapt or use parts of their codes:
   Stefan Grimme, W. Hujo, H. Kruse,             : VdW corrections, initial TS optimization,
                  C. Bannwarth                     DFT functionals, gCP, sTDA/sTD-DF
   Ed Valeev                                     : LibInt (2-el integral package), F12 methods
   Garnet Chan, S. Sharma, J. Yang, R. Olivares  : DMRG
   Ulf Ekstrom                                   : XCFun DFT Library
   Mihaly Kallay                                 : mrcc  (arbitrary order and MRCC methods)
   Andreas Klamt, Michael Diedenhofen            : otool_cosmo (COSMO solvation model)
   Jiri Pittner, Ondrej Demel                    : Mk-CCSD
   Frank Weinhold                                : gennbo (NPA and NBO analysis)
   Christopher J. Cramer and Donald G. Truhlar   : smd solvation model


 Your calculation uses the libint2 library for the computation of 2-el integrals
 For citations please refer to: http://libint.valeyev.net

 This ORCA versions uses:
   CBLAS   interface :  Fast vector & matrix operations
   LAPACKE interface :  Fast linear algebra routines
   SCALAPACK package :  Parallel linear algebra routines




*****************************************
The coordinations will be read from file: inp.xyz
*****************************************


Your calculation utilizes the basis: 6-311G(d)
   H, Li - Ne  : R. Krishnan, J. S. Binkley, R. Seeger and J. A. Pople, J. Chem. Phys. 72, 650 (1980).
   Na - Ar     : A. D. McLean and G. S. Chandler J. Chem. Phys. 72, 5639, (1980).
   K  - Ca     : J.-P. Blaudeau, M. P. McGrath, L. A. Curtiss and L. Radom, J. Chem. Phys. 107, 5016 (1997).
   Ga - Kr     : L. A. Curtiss, M. P. McGrath, J.-P. Blandeau, N. E. Davis, R. C. Binning and L. Radom, J. Chem. Phys. 103, 6104 (1995).
   Pol./Diff.
   H, Li - Cl  : T. Clark, J. Chandrasekhar and P. v. R. Schleyer, J. Comp. Chem. 4, 294 (1983).
   H - Ne      : M. J. Frisch, J. A. Pople and J. S. Binkley, J. Chem. Phys. 80, 3265 (1984).

================================================================================
                                        WARNINGS
                       Please study these warnings very carefully!
================================================================================

Warning: TCutStore was < 0. Adjusted to Thresh (uncritical)

WARNING: TCut can not be >=Thresh
  ===> : TCut is set to 0.01*Thresh

WARNING: Geometry Optimization
  ===> : Switching off AutoStart
         For restart on a previous wavefunction, please use MOREAD

WARNING: Post HF methods need fully converged wavefunctions
  ===> : Setting SCFConvForced true
         You can overwrite this default with %scf ConvForced false 


INFO   : the flag for use of LIBINT has been found!

================================================================================
                                       INPUT FILE
================================================================================
NAME = run.inp
|  1> ! MP2 6-311G(d) Opt NoFrozenCore ExtremeSCF
|  2> 
|  3> %geom
|  4>  MaxIter 1
|  5>  inhess unit
|  6>  MaxStep 0.01                              
|  7>  Convergence tight
|  8>  Trust 0.1
|  9> end
| 10> 
| 11> %mp2 MaxCore 5000
| 12> end
| 13> 
| 14> *xyzfile -1 1 inp.xyz
| 15> 
| 16>                          ****END OF INPUT****
================================================================================

                       *****************************
                       * Geometry Optimization Run *
                       *****************************

Geometry optimization settings:
Update method            Update   .... BFGS
Choice of coordinates    CoordSys .... Redundant Internals
Initial Hessian          InHess   .... Unit Matrix

Convergence Tolerances:
Energy Change            TolE     ....  3.0000e-05 Eh
Max. Gradient            TolMAXG  ....  2.0000e-03 Eh/bohr
RMS Gradient             TolRMSG  ....  5.0000e-04 Eh/bohr
Max. Displacement        TolMAXD  ....  1.0000e-02 bohr
RMS Displacement         TolRMSD  ....  7.0000e-03 bohr

------------------------------------------------------------------------------
                        ORCA OPTIMIZATION COORDINATE SETUP
------------------------------------------------------------------------------

The optimization will be done in new redundant internal coordinates
Making redundant internal coordinates   ...  (new redundants) done
Evaluating the initial hessian          ... done
Evaluating the coordinates              ...  done
Calculating the B-matrix                .... done
Calculating the G-matrix                .... done
Diagonalizing the G-matrix              .... done
The first mode is                       ....   67
The number of degrees of freedom        ....   36

    -----------------------------------------------------------------
                    Redundant Internal Coordinates


    -----------------------------------------------------------------
         Definition                    Initial Value    Approx d2E/dq
    -----------------------------------------------------------------
      1. B(C   1,C   0)                  1.3669         0.500000   
      2. B(Cl  2,C   1)                  3.2552         0.500000   
      3. B(Cl  2,C   0)                  2.5940         0.500000   
      4. B(H   4,C   1)                  1.4865         0.500000   
      5. B(H   4,Cl  3)                  1.5082         0.500000   
      6. B(H   5,C   0)                  1.0848         0.500000   
      7. B(H   5,Cl  2)                  2.6233         0.500000   
      8. B(H   6,C   1)                  1.0915         0.500000   
      9. B(C   7,C   0)                  1.4911         0.500000   
     10. B(C   7,Cl  2)                  3.2105         0.500000   
     11. B(H   8,C   7)                  1.0886         0.500000   
     12. B(H   8,Cl  2)                  2.9622         0.500000   
     13. B(H   9,C   7)                  1.0912         0.500000   
     14. B(H  10,C   7)                  1.0981         0.500000   
     15. B(N  11,C   1)                  1.4385         0.500000   
     16. B(H  12,N  11)                  1.0134         0.500000   
     17. B(H  13,N  11)                  1.0163         0.500000   
     18. B(H  13,Cl  2)                  2.8763         0.500000   
     19. A(C   1,C   0,Cl  2)          106.3746         0.200000   
     20. A(Cl  2,C   0,H   5)           79.5149         0.200000   
     21. A(C   1,C   0,H   5)          116.8754         0.200000   
     22. A(Cl  2,C   0,C   7)          100.0885         0.200000   
     23. A(C   1,C   0,C   7)          122.9982         0.200000   
     24. A(H   5,C   0,C   7)          117.0477         0.200000   
     25. A(C   0,C   1,Cl  2)           49.8677         0.200000   
     26. A(H   6,C   1,N  11)          115.2756         0.200000   
     27. A(H   4,C   1,H   6)           99.4332         0.200000   
     28. A(C   0,C   1,N  11)          121.3140         0.200000   
     29. A(C   0,C   1,H   6)          117.8939         0.200000   
     30. A(C   0,C   1,H   4)           89.9625         0.200000   
     31. A(Cl  2,C   1,N  11)           90.1686         0.200000   
     32. A(Cl  2,C   1,H   6)          109.7704         0.200000   
     33. A(Cl  2,C   1,H   4)          137.9130         0.200000   
     34. A(H   4,C   1,N  11)          104.2937         0.200000   
     35. A(C   0,Cl  2,C   1)           23.7577         0.200000   
     36. A(C   1,Cl  2,C   7)           45.7237         0.200000   
     37. A(C   0,Cl  2,C   7)           27.2113         0.200000   
     38. A(C   1,H   4,Cl  3)          166.6604         0.200000   
     39. A(Cl  2,C   7,H   9)           97.4634         0.200000   
     40. A(C   0,C   7,Cl  2)           52.7002         0.200000   
     41. A(H   8,C   7,H   9)          108.6673         0.200000   
     42. A(C   0,C   7,H   9)          111.0881         0.200000   
     43. A(H   9,C   7,H  10)          108.6913         0.200000   
     44. A(C   0,C   7,H   8)          109.9701         0.200000   
     45. A(H   8,C   7,H  10)          108.9800         0.200000   
     46. A(Cl  2,C   7,H   8)           67.1155         0.200000   
     47. A(C   0,C   7,H  10)          109.4036         0.200000   
     48. A(Cl  2,C   7,H  10)          153.0059         0.200000   
     49. A(H  12,N  11,H  13)          109.0327         0.200000   
     50. A(C   1,N  11,H  13)          106.6536         0.200000   
     51. A(C   1,N  11,H  12)          111.1618         0.200000   
     52. D(Cl  2,C   1,C   0,C   7)    114.1104         0.100000   
     53. D(N  11,C   1,C   0,C   7)    173.5562         0.100000   
     54. D(H   4,C   1,C   0,Cl  2)    166.2194         0.100000   
     55. D(N  11,C   1,C   0,Cl  2)     59.4458         0.100000   
     56. D(N  11,C   1,C   0,H   5)    -26.9005         0.100000   
     57. D(H   4,C   1,C   0,H   5)     79.8732         0.100000   
     58. D(H   6,C   1,C   0,Cl  2)    -93.1138         0.100000   
     59. D(Cl  2,C   1,C   0,H   5)    -86.3462         0.100000   
     60. D(H   4,C   1,C   0,C   7)    -79.6702         0.100000   
     61. D(H   6,C   1,C   0,H   5)   -179.4601         0.100000   
     62. D(H   6,C   1,C   0,C   7)     20.9966         0.100000   
     63. D(C   7,Cl  2,C   0,C   1)    128.9639         0.100000   
     64. D(C   1,Cl  2,C   0,H   5)    115.1369         0.100000   
     65. D(C   7,Cl  2,C   0,H   5)   -115.8992         0.100000   
     66. D(C   7,Cl  2,C   1,H   4)    -50.5921         0.100000   
     67. D(C   1,Cl  2,C   0,C   7)   -128.9639         0.100000   
     68. D(C   7,Cl  2,C   1,H   6)     80.5421         0.100000   
     69. D(C   0,Cl  2,C   1,H   4)    -20.8175         0.100000   
     70. D(C   7,Cl  2,C   1,N  11)   -162.4074         0.100000   
     71. D(C   0,Cl  2,C   1,N  11)   -132.6328         0.100000   
     72. D(C   0,Cl  2,C   1,H   6)    110.3167         0.100000   
     73. D(C   7,Cl  2,C   1,C   0)    -29.7746         0.100000   
     74. D(Cl  3,H   4,C   1,Cl  2)   -138.8100         0.100000   
     75. D(Cl  3,H   4,C   1,N  11)    -32.1536         0.100000   
     76. D(Cl  3,H   4,C   1,H   6)     87.1201         0.100000   
     77. D(Cl  3,H   4,C   1,C   0)   -154.5766         0.100000   
     78. D(H   9,C   7,C   0,C   1)    -34.0111         0.100000   
     79. D(H   8,C   7,C   0,Cl  2)    -37.1600         0.100000   
     80. D(H   8,C   7,C   0,H   5)     46.1387         0.100000   
     81. D(H   9,C   7,C   0,H   5)    166.4782         0.100000   
     82. D(H   8,C   7,C   0,C   1)   -154.3507         0.100000   
     83. D(H  10,C   7,Cl  2,C   1)     80.8197         0.100000   
     84. D(H   9,C   7,Cl  2,C   1)    -84.9330         0.100000   
     85. D(H   9,C   7,Cl  2,C   0)   -110.8781         0.100000   
     86. D(H   8,C   7,Cl  2,C   1)    167.9040         0.100000   
     87. D(H   8,C   7,Cl  2,C   0)    141.9590         0.100000   
     88. D(C   0,C   7,Cl  2,C   1)     25.9450         0.100000   
     89. D(Cl  2,C   7,C   0,H   5)     83.2986         0.100000   
     90. D(Cl  2,C   7,C   0,C   1)   -117.1907         0.100000   
     91. D(H  10,C   7,C   0,Cl  2)   -156.8215         0.100000   
     92. D(H  10,C   7,C   0,H   5)    -73.5228         0.100000   
     93. D(H  10,C   7,Cl  2,C   0)     54.8747         0.100000   
     94. D(H  10,C   7,C   0,C   1)     85.9878         0.100000   
     95. D(H   9,C   7,C   0,Cl  2)     83.1796         0.100000   
     96. D(H  13,N  11,C   1,Cl  2)      6.6518         0.100000   
     97. D(H  13,N  11,C   1,H   4)   -133.3968         0.100000   
     98. D(H  13,N  11,C   1,H   6)    118.7042         0.100000   
     99. D(H  13,N  11,C   1,C   0)    -34.5262         0.100000   
    100. D(H  12,N  11,C   1,Cl  2)    125.3892         0.100000   
    101. D(H  12,N  11,C   1,H   4)    -14.6594         0.100000   
    102. D(H  12,N  11,C   1,H   6)   -122.5584         0.100000   
    103. D(H  12,N  11,C   1,C   0)     84.2112         0.100000   
    -----------------------------------------------------------------

Number of atoms                         .... 14
Number of degrees of freedom            .... 103

         *************************************************************
         *                GEOMETRY OPTIMIZATION CYCLE   1            *
         *************************************************************
---------------------------------
CARTESIAN COORDINATES (ANGSTROEM)
---------------------------------
  C     -0.275498   -0.124361   -0.175657
  C     -0.227955   -0.094890    1.190066
  Cl     2.170465    0.138877   -0.998396
  Cl    -3.126590    0.437429    1.592094
  H     -1.701506    0.095013    1.236291
  H     -0.340256    0.831328   -0.684820
  H     -0.153565   -1.046725    1.719091
  C     -0.682271   -1.333184   -0.948191
  H     -0.236756   -1.307181   -1.941061
  H     -0.361445   -2.246908   -0.445227
  H     -1.775647   -1.351633   -1.047742
  N      0.299026    1.042632    1.895410
  H     -0.407498    1.759434    2.013326
  H      1.055429    1.413196    1.326667

----------------------------
CARTESIAN COORDINATES (A.U.)
----------------------------
  NO LB      ZA    FRAG     MASS         X           Y           Z
   0 C     6.0000    0    12.011   -0.520616   -0.235008   -0.331944
   1 C     6.0000    0    12.011   -0.430773   -0.179316    2.248899
   2 Cl   17.0000    0    35.453    4.101584    0.262439   -1.886695
   3 Cl   17.0000    0    35.453   -5.908399    0.826621    3.008622
   4 H     1.0000    0     1.008   -3.215380    0.179549    2.336251
   5 H     1.0000    0     1.008   -0.642991    1.570982   -1.294122
   6 H     1.0000    0     1.008   -0.290196   -1.978024    3.248611
   7 C     6.0000    0    12.011   -1.289305   -2.519353   -1.791821
   8 H     1.0000    0     1.008   -0.447404   -2.470214   -3.668074
   9 H     1.0000    0     1.008   -0.683032   -4.246041   -0.841357
  10 H     1.0000    0     1.008   -3.355487   -2.554216   -1.979945
  11 N     7.0000    0    14.007    0.565077    1.970289    3.581806
  12 H     1.0000    0     1.008   -0.770060    3.324848    3.804635
  13 H     1.0000    0     1.008    1.994472    2.670553    2.507037

--------------------------------
INTERNAL COORDINATES (ANGSTROEM)
--------------------------------
 C      0   0   0     0.000000000000     0.00000000     0.00000000
 C      1   0   0     1.366868021946     0.00000000     0.00000000
 Cl     1   2   0     2.594017868893   106.37464693     0.00000000
 Cl     2   1   3     2.974403283647    96.02783684   163.32451279
 H      2   1   3     1.486456339633    89.96249845   166.21941565
 H      1   2   3     1.084795844320   116.87536741   273.65377342
 H      2   1   3     1.091508676076   117.89390404   266.88615339
 C      1   2   3     1.491149254774   122.99819999   114.11042021
 H      8   1   2     1.088554366182   109.97007429   205.64927556
 H      8   1   2     1.091234922346   111.08813989   325.98886438
 H      8   1   2     1.098053661976   109.40356013    85.98778800
 N      2   1   3     1.438462871673   121.31398306    59.44575903
 H     12   2   1     1.013353567535   111.16184378    84.21121542
 H     12   2   1     1.016332512790   106.65363220   325.47381341

---------------------------
INTERNAL COORDINATES (A.U.)
---------------------------
 C      0   0   0     0.000000000000     0.00000000     0.00000000
 C      1   0   0     2.583006222693     0.00000000     0.00000000
 Cl     1   2   0     4.901983358705   106.37464693     0.00000000
 Cl     2   1   3     5.620807617929    96.02783684   163.32451279
 H      2   1   3     2.808995391937    89.96249845   166.21941565
 H      1   2   3     2.049967056981   116.87536741   273.65377342
 H      2   1   3     2.062652470583   117.89390404   266.88615339
 C      1   2   3     2.817863716324   122.99819999   114.11042021
 H      8   1   2     2.057069633968   109.97007429   205.64927556
 H      8   1   2     2.062135151005   111.08813989   325.98886438
 H      8   1   2     2.075020701483   109.40356013    85.98778800
 N      2   1   3     2.718300881275   121.31398306    59.44575903
 H     12   2   1     1.914960719473   111.16184378    84.21121542
 H     12   2   1     1.920590110173   106.65363220   325.47381341

---------------------
BASIS SET INFORMATION
---------------------
There are 4 groups of distinct atoms

 Group   1 Type C   : 11s5p1d contracted to 4s3p1d pattern {6311/311/1}
 Group   2 Type Cl  : 13s10p1d contracted to 6s5p1d pattern {631111/52111/1}
 Group   3 Type H   : 5s contracted to 3s pattern {311}
 Group   4 Type N   : 11s5p1d contracted to 4s3p1d pattern {6311/311/1}

Atom   0C    basis set group =>   1
Atom   1C    basis set group =>   1
Atom   2Cl   basis set group =>   2
Atom   3Cl   basis set group =>   2
Atom   4H    basis set group =>   3
Atom   5H    basis set group =>   3
Atom   6H    basis set group =>   3
Atom   7C    basis set group =>   1
Atom   8H    basis set group =>   3
Atom   9H    basis set group =>   3
Atom  10H    basis set group =>   3
Atom  11N    basis set group =>   4
Atom  12H    basis set group =>   3
Atom  13H    basis set group =>   3
------------------------------------------------------------------------------
                           ORCA GTO INTEGRAL CALCULATION
------------------------------------------------------------------------------

                         BASIS SET STATISTICS AND STARTUP INFO

 # of primitive gaussian shells          ...  156
 # of primitive gaussian functions       ...  260
 # of contracted shells                  ...   80
 # of contracted basis functions         ...  148
 Highest angular momentum                ...    2
 Maximum contraction depth               ...    6
 Integral package used                   ... LIBINT
 Integral threshhold            Thresh   ...  3.000e-16
 Primitive cut-off              TCut     ...  3.000e-18


------------------------------ INTEGRAL EVALUATION ----------------------------


 * One electron integrals 
 Pre-screening matrix                    ... done
 Shell pair data                         ... done (   0.001 sec)

-------------------------------------------------------------------------------
                                 ORCA SCF
-------------------------------------------------------------------------------

------------
SCF SETTINGS
------------
Hamiltonian:
 Ab initio Hamiltonian  Method          .... Hartree-Fock(GTOs)


General Settings:
 Integral files         IntName         .... run
 Hartree-Fock type      HFTyp           .... RHF
 Total Charge           Charge          ....   -1
 Multiplicity           Mult            ....    1
 Number of Electrons    NEL             ....   68
 Basis Dimension        Dim             ....  148
 Nuclear Repulsion      ENuc            ....    331.2868135354 Eh

Convergence Acceleration:
 DIIS                   CNVDIIS         .... on
   Start iteration      DIISMaxIt       ....    12
   Startup error        DIISStart       ....  0.200000
   # of expansion vecs  DIISMaxEq       ....     5
   Bias factor          DIISBfac        ....   1.050
   Max. coefficient     DIISMaxC        ....  10.000
 Newton-Raphson         CNVNR           .... off
 SOSCF                  CNVSOSCF        .... on
   Start iteration      SOSCFMaxIt      ....   150
   Startup grad/error   SOSCFStart      ....  0.003300
 Level Shifting         CNVShift        .... on
   Level shift para.    LevelShift      ....    0.2500
   Turn off err/grad.   ShiftErr        ....    0.0010
 Zerner damping         CNVZerner       .... off
 Static damping         CNVDamp         .... on
   Fraction old density DampFac         ....    0.7000
   Max. Damping (<1)    DampMax         ....    0.9800
   Min. Damping (>=0)   DampMin         ....    0.0000
   Turn off err/grad.   DampErr         ....    0.1000
 Fernandez-Rico         CNVRico         .... off

SCF Procedure:
 Maximum # iterations   MaxIter         ....   125
 SCF integral mode      SCFMode         .... Direct
   Integral package                     .... LIBINT
 Reset frequeny         DirectResetFreq ....    20
 Integral Threshold     Thresh          ....  3.000e-16 Eh
 Primitive CutOff       TCut            ....  3.000e-18 Eh

Convergence Tolerance:
 Convergence Check Mode ConvCheckMode   .... All-Criteria
 Convergence forced     ConvForced      .... 1
 Energy Change          TolE            ....  1.000e-14 Eh
 Max Density Change     TolMaxP         ....  1.000e-14
 RMS Density Change     TolRMSP         ....  1.000e-14
 Orbital Gradient       TolG            ....  1.000e-09
 Orbital Rotation angle TolX            ....  1.000e-09
 DIIS Error             TolErr          ....  1.000e-14


Diagonalization of the overlap matrix:
Smallest eigenvalue                        ... 2.087e-03
Time for diagonalization                   ...    0.004 sec
Threshold for overlap eigenvalues          ... 1.000e-08
Number of eigenvalues below threshold      ... 0
Time for construction of square roots      ...    0.001 sec
Total time needed                          ...    0.006 sec

-------------------
DFT GRID GENERATION
-------------------

General Integration Accuracy     IntAcc      ...  4.340
Radial Grid Type                 RadialGrid  ... Gauss-Chebyshev
Angular Grid (max. acc.)         AngularGrid ... Lebedev-110
Angular grid pruning method      GridPruning ... 3 (G Style)
Weight generation scheme         WeightScheme... Becke
Basis function cutoff            BFCut       ...    3.0000e-16
Integration weight cutoff        WCut        ...    1.0000e-14
Grids for H and He will be reduced by one unit

# of grid points (after initial pruning)     ...  16710 (   0.0 sec)
# of grid points (after weights+screening)   ...  15671 (   0.0 sec)
nearest neighbour list constructed           ...    0.0 sec
Grid point re-assignment to atoms done       ...    0.0 sec
Grid point division into batches done        ...    0.0 sec
Reduced shell lists constructed in    0.2 sec

Total number of grid points                  ...    15671
Total number of batches                      ...      252
Average number of points per batch           ...       62
Average number of grid points per atom       ...     1119
Average number of shells per batch           ...    56.67 (70.84%)
Average number of basis functions per batch  ...   107.17 (72.41%)
Average number of large shells per batch     ...    46.21 (81.53%)
Average number of large basis fcns per batch ...    86.58 (80.78%)
Maximum spatial batch extension              ...  21.16, 22.20, 19.75 au
Average spatial batch extension              ...   3.89,  3.98,  4.00 au

Time for grid setup =    0.250 sec

------------------------------
INITIAL GUESS: MODEL POTENTIAL
------------------------------
Loading Hartree-Fock densities                     ... done
Calculating cut-offs                               ... done
Setting up the integral package                    ... done
Initializing the effective Hamiltonian             ... done
Starting the Coulomb interaction                   ... done (   0.2 sec)
Reading the grid                                   ... done
Mapping shells                                     ... done
Starting the XC term evaluation                    ... done (   0.2 sec)
Transforming the Hamiltonian                       ... done (   0.0 sec)
Diagonalizing the Hamiltonian                      ... done (   0.0 sec)
Back transforming the eigenvectors                 ... done (   0.0 sec)
Now organizing SCF variables                       ... done
                      ------------------
                      INITIAL GUESS DONE (   0.7 sec)
                      ------------------
--------------
SCF ITERATIONS
--------------
ITER       Energy         Delta-E        Max-DP      RMS-DP      [F,P]     Damp
               ***  Starting incremental Fock matrix formation  ***
  0  -1091.4235860446   0.000000000000 0.06055852  0.00178547  0.6464156 0.7000
  1  -1091.5417864038  -0.118200359173 0.04508980  0.00140571  0.4553864 0.7000
  2  -1091.6142299770  -0.072443573229 0.02818146  0.00090413  0.3210405 0.7000
  3  -1091.6603537886  -0.046123811507 0.01689776  0.00056279  0.2265388 0.7000
                               ***Turning on DIIS***
  4  -1091.6914443053  -0.031090516747 0.01005243  0.00036294  0.1596738 0.7000
  5  -1092.1039068962  -0.412462590939 0.00631047  0.00025710  0.1124333 0.7000
  6  -1092.0369361220   0.066970774277 0.01884239  0.00068694  0.0787675 0.0000
  7  -1091.7739732766   0.262962845400 0.00542239  0.00011691  0.0042093 0.0000
                      *** Initiating the SOSCF procedure ***
                           *** Shutting down DIIS ***
                      *** Re-Reading the Fockian *** 
                      *** Removing any level shift *** 
ITER      Energy       Delta-E        Grad      Rot      Max-DP    RMS-DP
  8  -1091.77101761   0.0029556687  0.002547  0.002547  0.004458  0.000093
               *** Restarting incremental Fock matrix formation ***
  9  -1091.76442485   0.0065927595  0.001156  0.002337  0.002505  0.000054
 10  -1091.76444008  -0.0000152284  0.000418  0.002271  0.003282  0.000068
 11  -1091.76444642  -0.0000063383  0.000077  0.000131  0.000266  0.000008
 12  -1091.76444672  -0.0000003048  0.000041  0.000088  0.000065  0.000003
 13  -1091.76444675  -0.0000000288  0.000014  0.000065  0.000050  0.000001
 14  -1091.76444675  -0.0000000054  0.000004  0.000007  0.000017  0.000000
 15  -1091.76444675  -0.0000000004  0.000001  0.000002  0.000003  0.000000
 16  -1091.76444675  -0.0000000000  0.000000  0.000001  0.000001  0.000000
 17  -1091.76444675  -0.0000000000  0.000000  0.000000  0.000000  0.000000
 18  -1091.76444675   0.0000000000  0.000000  0.000000  0.000000  0.000000
                          ***Energy convergence achieved***
 19  -1091.76444675   0.0000000000  0.000000  0.000000  0.000000  0.000000
 20  -1091.76444675   0.0000000000  0.000000  0.000000  0.000000  0.000000
 21  -1091.76444675  -0.0000000000  0.000000  0.000000  0.000000  0.000000
                    ***Orbital Rotation convergence achieved***
 22  -1091.76444675  -0.0000000000  0.000000  0.000000  0.000000  0.000000
 23  -1091.76444675  -0.0000000000  0.000000  0.000000  0.000000  0.000000
                           ***RMSP convergence achieved***
                           ***MAXP convergence achieved***
                       ***Gradient convergence achieved***
                    ***Orbital Rotation convergence achieved***
 24  -1091.76444675   0.0000000000  0.000000  0.000000  0.000000  0.000000
                          ***Energy convergence achieved***
              ***Rediagonalizing the Fockian in SOSCF/NRSCF***

               *****************************************************
               *                     SUCCESS                       *
               *           SCF CONVERGED AFTER  25 CYCLES          *
               *****************************************************


----------------
TOTAL SCF ENERGY
----------------

Total Energy       :        -1091.76444675 Eh          -29708.42094 eV

Components:
Nuclear Repulsion  :          331.28681354 Eh            9014.77250 eV
Electronic Energy  :        -1423.05126029 Eh          -38723.19344 eV
One Electron Energy:        -2174.78283053 Eh          -59178.84941 eV
Two Electron Energy:          751.73157024 Eh           20455.65597 eV

Virial components:
Potential Energy   :        -2183.59904624 Eh          -59418.75084 eV
Kinetic Energy     :         1091.83459949 Eh           29710.32990 eV
Virial Ratio       :            1.99993575


---------------
SCF CONVERGENCE
---------------

  Last Energy change         ...    0.0000e+00  Tolerance :   1.0000e-14
  Last MAX-Density change    ...    0.0000e+00  Tolerance :   1.0000e-14
  Last RMS-Density change    ...    0.0000e+00  Tolerance :   1.0000e-14
  Last Orbital Gradient      ...    9.9982e-10  Tolerance :   1.0000e-09
  Last Orbital Rotation      ...    0.0000e+00  Tolerance :   1.0000e-09

             **** THE GBW FILE WAS UPDATED (run.gbw) ****
             **** DENSITY FILE WAS UPDATED (run.scfp.tmp) ****
             **** ENERGY FILE WAS UPDATED (run.en.tmp) ****
----------------
ORBITAL ENERGIES
----------------

  NO   OCC          E(Eh)            E(eV) 
   0   2.0000    -104.647813     -2847.6118 
   1   2.0000    -104.559241     -2845.2016 
   2   2.0000     -15.412853      -419.4051 
   3   2.0000     -11.168129      -303.9002 
   4   2.0000     -11.120323      -302.5994 
   5   2.0000     -11.118717      -302.5557 
   6   2.0000     -10.374541      -282.3056 
   7   2.0000     -10.285343      -279.8784 
   8   2.0000      -7.842313      -213.4002 
   9   2.0000      -7.840480      -213.3503 
  10   2.0000      -7.840473      -213.3501 
  11   2.0000      -7.752361      -210.9525 
  12   2.0000      -7.751966      -210.9417 
  13   2.0000      -7.751918      -210.9404 
  14   2.0000      -1.068567       -29.0772 
  15   2.0000      -0.949396       -25.8344 
  16   2.0000      -0.906313       -24.6620 
  17   2.0000      -0.806052       -21.9338 
  18   2.0000      -0.798315       -21.7233 
  19   2.0000      -0.658775       -17.9262 
  20   2.0000      -0.543360       -14.7856 
  21   2.0000      -0.525968       -14.3123 
  22   2.0000      -0.493703       -13.4343 
  23   2.0000      -0.470340       -12.7986 
  24   2.0000      -0.434545       -11.8246 
  25   2.0000      -0.416314       -11.3285 
  26   2.0000      -0.400469       -10.8973 
  27   2.0000      -0.293283        -7.9806 
  28   2.0000      -0.292051        -7.9471 
  29   2.0000      -0.283960        -7.7269 
  30   2.0000      -0.255399        -6.9498 
  31   2.0000      -0.211285        -5.7493 
  32   2.0000      -0.209877        -5.7111 
  33   2.0000      -0.175401        -4.7729 
  34   0.0000       0.239322         6.5123 
  35   0.0000       0.281422         7.6579 
  36   0.0000       0.294470         8.0129 
  37   0.0000       0.314326         8.5532 
  38   0.0000       0.345913         9.4128 
  39   0.0000       0.348185         9.4746 
  40   0.0000       0.362762         9.8713 
  41   0.0000       0.372597        10.1389 
  42   0.0000       0.411284        11.1916 
  43   0.0000       0.474024        12.8989 
  44   0.0000       0.495268        13.4769 
  45   0.0000       0.529541        14.4095 
  46   0.0000       0.553285        15.0557 
  47   0.0000       0.576233        15.6801 
  48   0.0000       0.585831        15.9413 
  49   0.0000       0.594577        16.1793 
  50   0.0000       0.620040        16.8721 
  51   0.0000       0.634241        17.2586 
  52   0.0000       0.647942        17.6314 
  53   0.0000       0.663215        18.0470 
  54   0.0000       0.686840        18.6899 
  55   0.0000       0.696227        18.9453 
  56   0.0000       0.734829        19.9957 
  57   0.0000       0.738734        20.1020 
  58   0.0000       0.774800        21.0834 
  59   0.0000       0.785064        21.3627 
  60   0.0000       0.858846        23.3704 
  61   0.0000       0.874918        23.8077 
  62   0.0000       0.900504        24.5040 
  63   0.0000       0.912555        24.8319 
  64   0.0000       0.933772        25.4092 
  65   0.0000       0.936534        25.4844 
  66   0.0000       0.949549        25.8385 
  67   0.0000       0.975349        26.5406 
  68   0.0000       1.029839        28.0233 
  69   0.0000       1.050142        28.5758 
  70   0.0000       1.093948        29.7678 
  71   0.0000       1.134756        30.8783 
  72   0.0000       1.148168        31.2432 
  73   0.0000       1.188956        32.3531 
  74   0.0000       1.227885        33.4124 
  75   0.0000       1.285984        34.9934 
  76   0.0000       1.307383        35.5757 
  77   0.0000       1.324152        36.0320 
  78   0.0000       1.330551        36.2061 
  79   0.0000       1.331475        36.2313 
  80   0.0000       1.339992        36.4630 
  81   0.0000       1.416976        38.5579 
  82   0.0000       1.421057        38.6689 
  83   0.0000       1.437798        39.1245 
  84   0.0000       1.445255        39.3274 
  85   0.0000       1.473411        40.0936 
  86   0.0000       1.561496        42.4905 
  87   0.0000       1.594665        43.3930 
  88   0.0000       1.632512        44.4229 
  89   0.0000       1.675480        45.5921 
  90   0.0000       1.749041        47.5938 
  91   0.0000       1.797583        48.9147 
  92   0.0000       1.863590        50.7109 
  93   0.0000       1.890910        51.4543 
  94   0.0000       1.907717        51.9116 
  95   0.0000       1.991437        54.1898 
  96   0.0000       2.061620        56.0995 
  97   0.0000       2.130866        57.9838 
  98   0.0000       2.165794        58.9343 
  99   0.0000       2.324898        63.2637 
 100   0.0000       2.337783        63.6143 
 101   0.0000       2.399409        65.2912 
 102   0.0000       2.411064        65.6084 
 103   0.0000       2.468644        67.1752 
 104   0.0000       2.575279        70.0769 
 105   0.0000       2.648537        72.0704 
 106   0.0000       2.661870        72.4332 
 107   0.0000       2.683109        73.0111 
 108   0.0000       2.703325        73.5612 
 109   0.0000       2.740637        74.5765 
 110   0.0000       2.757777        75.0429 
 111   0.0000       2.795161        76.0602 
 112   0.0000       2.810107        76.4669 
 113   0.0000       2.850219        77.5584 
 114   0.0000       2.864333        77.9425 
 115   0.0000       2.889151        78.6178 
 116   0.0000       2.934004        79.8383 
 117   0.0000       3.029408        82.4344 
 118   0.0000       3.044086        82.8338 
 119   0.0000       3.267291        88.9075 
 120   0.0000       3.272337        89.0448 
 121   0.0000       3.333797        90.7172 
 122   0.0000       3.438332        93.5618 
 123   0.0000       3.463345        94.2424 
 124   0.0000       3.554958        96.7353 
 125   0.0000       3.661027        99.6216 
 126   0.0000       3.704885       100.8150 
 127   0.0000       3.764395       102.4344 
 128   0.0000       3.855602       104.9163 
 129   0.0000       4.151249       112.9612 
 130   0.0000       4.464431       121.4833 
 131   0.0000       4.536130       123.4344 
 132   0.0000       4.683446       127.4430 
 133   0.0000       5.200777       141.5203 
 134   0.0000      10.412945       283.3506 
 135   0.0000      10.529213       286.5144 
 136   0.0000      24.642813       670.5650 
 137   0.0000      24.939880       678.6486 
 138   0.0000      25.334507       689.3870 
 139   0.0000      26.437236       719.3938 
 140   0.0000      26.484895       720.6906 
 141   0.0000      26.543200       722.2772 
 142   0.0000      26.615600       724.2473 
 143   0.0000      26.788922       728.9636 
 144   0.0000      26.854851       730.7576 
 145   0.0000      36.976670      1006.1863 
 146   0.0000     219.227096      5965.4726 
 147   0.0000     219.377422      5969.5632 

                    ********************************
                    * MULLIKEN POPULATION ANALYSIS *
                    ********************************

-----------------------
MULLIKEN ATOMIC CHARGES
-----------------------
   0 C :   -0.055218
   1 C :   -0.235829
   2 Cl:   -0.845004
   3 Cl:   -0.608450
   4 H :    0.334634
   5 H :    0.255923
   6 H :    0.220834
   7 C :   -0.614113
   8 H :    0.253672
   9 H :    0.214369
  10 H :    0.218457
  11 N :   -0.844744
  12 H :    0.331782
  13 H :    0.373688
Sum of atomic charges:   -1.0000000

--------------------------------
MULLIKEN REDUCED ORBITAL CHARGES
--------------------------------
  0 C s       :     3.307312  s :     3.307312
      pz      :     0.935533  p :     2.664339
      px      :     0.694134
      py      :     1.034672
      dz2     :     0.018689  d :     0.083567
      dxz     :     0.018487
      dyz     :     0.026129
      dx2y2   :     0.014567
      dxy     :     0.005695
  1 C s       :     3.221715  s :     3.221715
      pz      :     0.850314  p :     2.919405
      px      :     1.103916
      py      :     0.965176
      dz2     :     0.026103  d :     0.094709
      dxz     :     0.011822
      dyz     :     0.031335
      dx2y2   :     0.017564
      dxy     :     0.007886
  2 Cls       :     5.987404  s :     5.987404
      pz      :     3.977355  p :    11.856462
      px      :     3.890031
      py      :     3.989075
      dz2     :     0.000123  d :     0.001137
      dxz     :     0.000348
      dyz     :     0.000040
      dx2y2   :     0.000462
      dxy     :     0.000164
  3 Cls       :     5.981587  s :     5.981587
      pz      :     3.973327  p :    11.616777
      px      :     3.668877
      py      :     3.974573
      dz2     :     0.001688  d :     0.010087
      dxz     :     0.001643
      dyz     :     0.000111
      dx2y2   :     0.005103
      dxy     :     0.001543
  4 H s       :     0.665366  s :     0.665366
  5 H s       :     0.744077  s :     0.744077
  6 H s       :     0.779166  s :     0.779166
  7 C s       :     3.342343  s :     3.342343
      pz      :     1.118019  p :     3.202663
      px      :     1.084477
      py      :     1.000167
      dz2     :     0.016046  d :     0.069107
      dxz     :     0.008869
      dyz     :     0.016104
      dx2y2   :     0.022212
      dxy     :     0.005877
  8 H s       :     0.746328  s :     0.746328
  9 H s       :     0.785631  s :     0.785631
 10 H s       :     0.781543  s :     0.781543
 11 N s       :     3.686053  s :     3.686053
      pz      :     1.706127  p :     4.122192
      px      :     1.248979
      py      :     1.167085
      dz2     :     0.004049  d :     0.036499
      dxz     :     0.008079
      dyz     :     0.007286
      dx2y2   :     0.002652
      dxy     :     0.014434
 12 H s       :     0.668218  s :     0.668218
 13 H s       :     0.626312  s :     0.626312


                     *******************************
                     * LOEWDIN POPULATION ANALYSIS *
                     *******************************

----------------------
LOEWDIN ATOMIC CHARGES
----------------------
   0 C :    0.034632
   1 C :   -0.241607
   2 Cl:   -0.782772
   3 Cl:   -0.495460
   4 H :    0.183333
   5 H :    0.120507
   6 H :    0.097324
   7 C :   -0.274771
   8 H :    0.121422
   9 H :    0.107930
  10 H :    0.111186
  11 N :   -0.374128
  12 H :    0.188881
  13 H :    0.203522

-------------------------------
LOEWDIN REDUCED ORBITAL CHARGES
-------------------------------
  0 C s       :     2.886904  s :     2.886904
      pz      :     1.114033  p :     2.922200
      px      :     0.715870
      py      :     1.092297
      dz2     :     0.038927  d :     0.156265
      dxz     :     0.034226
      dyz     :     0.049646
      dx2y2   :     0.022615
      dxy     :     0.010851
  1 C s       :     2.845768  s :     2.845768
      pz      :     1.076086  p :     3.205607
      px      :     1.111196
      py      :     1.018325
      dz2     :     0.057755  d :     0.190232
      dxz     :     0.019994
      dyz     :     0.062005
      dx2y2   :     0.033074
      dxy     :     0.017404
  2 Cls       :     5.949254  s :     5.949254
      pz      :     3.969530  p :    11.832191
      px      :     3.879292
      py      :     3.983370
      dz2     :     0.000118  d :     0.001327
      dxz     :     0.000465
      dyz     :     0.000049
      dx2y2   :     0.000528
      dxy     :     0.000167
  3 Cls       :     5.850977  s :     5.850977
      pz      :     3.974850  p :    11.633459
      px      :     3.683380
      py      :     3.975229
      dz2     :     0.001837  d :     0.011024
      dxz     :     0.001783
      dyz     :     0.000118
      dx2y2   :     0.005595
      dxy     :     0.001691
  4 H s       :     0.816667  s :     0.816667
  5 H s       :     0.879493  s :     0.879493
  6 H s       :     0.902676  s :     0.902676
  7 C s       :     2.882387  s :     2.882387
      pz      :     1.107421  p :     3.284599
      px      :     1.096444
      py      :     1.080734
      dz2     :     0.023801  d :     0.107785
      dxz     :     0.012183
      dyz     :     0.027128
      dx2y2   :     0.034289
      dxy     :     0.010384
  8 H s       :     0.878578  s :     0.878578
  9 H s       :     0.892070  s :     0.892070
 10 H s       :     0.888814  s :     0.888814
 11 N s       :     3.192253  s :     3.192253
      pz      :     1.652502  p :     4.129936
      px      :     1.260278
      py      :     1.217156
      dz2     :     0.004861  d :     0.051939
      dxz     :     0.009647
      dyz     :     0.011251
      dx2y2   :     0.005782
      dxy     :     0.020398
 12 H s       :     0.811119  s :     0.811119
 13 H s       :     0.796478  s :     0.796478


                      *****************************
                      * MAYER POPULATION ANALYSIS *
                      *****************************

  NA   - Mulliken gross atomic population
  ZA   - Total nuclear charge
  QA   - Mulliken gross atomic charge
  VA   - Mayer's total valence
  BVA  - Mayer's bonded valence
  FA   - Mayer's free valence

  ATOM       NA         ZA         QA         VA         BVA        FA
  0 C      6.0552     6.0000    -0.0552     3.6208     3.6208     0.0000
  1 C      6.2358     6.0000    -0.2358     3.5106     3.5106    -0.0000
  2 Cl    17.8450    17.0000    -0.8450     0.2126     0.2126     0.0000
  3 Cl    17.6085    17.0000    -0.6085     0.5361     0.5361    -0.0000
  4 H      0.6654     1.0000     0.3346     0.8333     0.8333    -0.0000
  5 H      0.7441     1.0000     0.2559     0.8992     0.8992    -0.0000
  6 H      0.7792     1.0000     0.2208     0.9257     0.9257    -0.0000
  7 C      6.6141     6.0000    -0.6141     3.6792     3.6792    -0.0000
  8 H      0.7463     1.0000     0.2537     0.9012     0.9012    -0.0000
  9 H      0.7856     1.0000     0.2144     0.9169     0.9169     0.0000
 10 H      0.7815     1.0000     0.2185     0.9051     0.9051    -0.0000
 11 N      7.8447     7.0000    -0.8447     2.5895     2.5895    -0.0000
 12 H      0.6682     1.0000     0.3318     0.8537     0.8537    -0.0000
 13 H      0.6263     1.0000     0.3737     0.8341     0.8341     0.0000

  Mayer bond orders larger than 0.1
B(  0-C ,  1-C ) :   1.4759 B(  0-C ,  2-Cl) :   0.2211 B(  0-C ,  5-H ) :   0.9268 
B(  0-C ,  7-C ) :   0.9525 B(  1-C ,  4-H ) :   0.2997 B(  1-C ,  6-H ) :   0.9474 
B(  1-C , 11-N ) :   0.9065 B(  3-Cl,  4-H ) :   0.4835 B(  7-C ,  8-H ) :   0.9292 
B(  7-C ,  9-H ) :   0.9480 B(  7-C , 10-H ) :   0.9226 B( 11-N , 12-H ) :   0.8545 
B( 11-N , 13-H ) :   0.8323 

-------
TIMINGS
-------

Total SCF time: 0 days 0 hours 1 min 34 sec 

Total time                  ....      94.252 sec
Sum of individual times     ....      94.175 sec  ( 99.9%)

Fock matrix formation       ....      93.324 sec  ( 99.0%)
Diagonalization             ....       0.054 sec  (  0.1%)
Density matrix formation    ....       0.007 sec  (  0.0%)
Population analysis         ....       0.007 sec  (  0.0%)
Initial guess               ....       0.473 sec  (  0.5%)
Orbital Transformation      ....       0.000 sec  (  0.0%)
Orbital Orthonormalization  ....       0.000 sec  (  0.0%)
DIIS solution               ....       0.012 sec  (  0.0%)
SOSCF solution              ....       0.048 sec  (  0.1%)

------------------------------------------------------------------------------
                                ORCA  MP2 
------------------------------------------------------------------------------

MP2 will be done in the AO integral direct mode
The Q1-step will be done using symmetric double matrices
Dimension of the basis                    ...  148
Memory devoted for MP2                    ... 5000 MB   
Memory needed for all in one shot         ...  424 MB
Number of MOs that can be treated together...  400      
MP2 density construction                  ... relaxed
The MP2 gradient is requested => amplitudes will be stored on disk
Total number of MOs              ...   34
Number of MOs treated per batch  ...   34 
Number of batches necessary      ...    1 
OPERATORS   0/  0 PASS   0
-----------------------------------------------
 MP2 CORRELATION ENERGY   :     -1.053662750 Eh
-----------------------------------------------


---------------------
MP2 DENSITY FORMATION
---------------------

Completing the external part of the density      ... done
Storing the unrelaxed density                    ... done

Calculating G(D)                                 ... done
Completing the Lagrangian                        ... done
Solving the Z-vector equations                   ... 

------------------------------------------------------------------------------
                           ORCA CP-SCF CALCULATION
------------------------------------------------------------------------------

Input orbitals are from        ... run.gbw
Input Perturbation             ... run.pin.tmp
Wavefunction output            ... run.pout.tmp
Perturbation mode              ... Real perturbation
Solver                         ... POPLE
Max. number of iterations      ... 128
Convergence tolerance          ... 1.000e-11
Integral handling              ... Direct
Number of perturbations        ... 1
Number of operators            ... 1
Orbital ranges used for CP-SCF:
 Operator 0:  Orbitals   0... 33  to  34...147
Variables per vector in CP-SCF ... 3876
Number of vectors sought       ... 1
     CP-SCF ITERATION   0: 
     CP-SCF ITERATION   1:      0.002342228454
     CP-SCF ITERATION   2:      0.000268290108
     CP-SCF ITERATION   3:      0.000049494307
     CP-SCF ITERATION   4:      0.000004756425
     CP-SCF ITERATION   5:      0.000000576186
     CP-SCF ITERATION   6:      0.000000038902
     CP-SCF ITERATION   7:      0.000000002921
     CP-SCF ITERATION   8:      0.000000000237
     CP-SCF ITERATION   9:      0.000000000028
     CP-SCF ITERATION  10:      0.000000000003
                                                 ... done
Finalizing the relaxed density                   ... done
Transforming P to the AO basis                   ... done
Storing the relaxed density                      ... done

------------------------------------
ENERGY WEIGHTED DENSITY FINALIZATION
------------------------------------

Gathering the parts of the W-matrix              ...                                                      done
Forming the Z-density                            ... done
Transforming Z to the AO basis                   ... done
Calculating G(Z)                                 ... done
Finalizing the W-matrix                          ...                                                      done
Transforming W to the AO basis and storing       ... done

                *********************************************
                * UNRELAXED MP2 DENSITY POPULATION ANALYSIS *
                *********************************************

------------------------------------------------------------------------------
                           ORCA POPULATION ANALYSIS
------------------------------------------------------------------------------
Input electron density              ... run.pmp2ur
BaseName (.gbw .S,...)              ... run

                    ********************************
                    * MULLIKEN POPULATION ANALYSIS *
                    ********************************

-----------------------
MULLIKEN ATOMIC CHARGES
-----------------------
   0 C :   -0.075485
   1 C :   -0.234948
   2 Cl:   -0.836680
   3 Cl:   -0.601079
   4 H :    0.328203
   5 H :    0.257891
   6 H :    0.223235
   7 C :   -0.620009
   8 H :    0.255523
   9 H :    0.216875
  10 H :    0.220449
  11 N :   -0.837292
  12 H :    0.331142
  13 H :    0.372176
Sum of atomic charges:   -1.0000000

--------------------------------
MULLIKEN REDUCED ORBITAL CHARGES
--------------------------------
  0 C s       :     3.304030  s :     3.304030
      pz      :     0.932674  p :     2.670486
      px      :     0.706700
      py      :     1.031112
      dz2     :     0.022065  d :     0.100968
      dxz     :     0.021590
      dyz     :     0.030259
      dx2y2   :     0.017727
      dxy     :     0.009327
  1 C s       :     3.218898  s :     3.218898
      pz      :     0.848210  p :     2.900370
      px      :     1.089172
      py      :     0.962988
      dz2     :     0.029641  d :     0.115680
      dxz     :     0.016667
      dyz     :     0.035235
      dx2y2   :     0.021924
      dxy     :     0.012213
  2 Cls       :     5.980343  s :     5.980343
      pz      :     3.961048  p :    11.805622
      px      :     3.871291
      py      :     3.973284
      dz2     :     0.009986  d :     0.050715
      dxz     :     0.010363
      dyz     :     0.009804
      dx2y2   :     0.010420
      dxy     :     0.010142
  3 Cls       :     5.973925  s :     5.973925
      pz      :     3.956843  p :    11.567451
      px      :     3.652411
      py      :     3.958197
      dz2     :     0.011608  d :     0.059703
      dxz     :     0.011574
      dyz     :     0.009987
      dx2y2   :     0.015068
      dxy     :     0.011466
  4 H s       :     0.671797  s :     0.671797
  5 H s       :     0.742109  s :     0.742109
  6 H s       :     0.776765  s :     0.776765
  7 C s       :     3.338825  s :     3.338825
      pz      :     1.113979  p :     3.191823
      px      :     1.081045
      py      :     0.996799
      dz2     :     0.020143  d :     0.089362
      dxz     :     0.013169
      dyz     :     0.019828
      dx2y2   :     0.025920
      dxy     :     0.010301
  8 H s       :     0.744477  s :     0.744477
  9 H s       :     0.783125  s :     0.783125
 10 H s       :     0.779551  s :     0.779551
 11 N s       :     3.681493  s :     3.681493
      pz      :     1.694148  p :     4.099484
      px      :     1.243637
      py      :     1.161699
      dz2     :     0.008356  d :     0.056316
      dxz     :     0.012129
      dyz     :     0.011235
      dx2y2   :     0.006607
      dxy     :     0.017989
 12 H s       :     0.668858  s :     0.668858
 13 H s       :     0.627824  s :     0.627824


                     *******************************
                     * LOEWDIN POPULATION ANALYSIS *
                     *******************************

----------------------
LOEWDIN ATOMIC CHARGES
----------------------
   0 C :    0.014923
   1 C :   -0.244193
   2 Cl:   -0.774512
   3 Cl:   -0.488066
   4 H :    0.178902
   5 H :    0.124125
   6 H :    0.101472
   7 C :   -0.286111
   8 H :    0.124876
   9 H :    0.111770
  10 H :    0.114650
  11 N :   -0.372371
  12 H :    0.190240
  13 H :    0.204294

-------------------------------
LOEWDIN REDUCED ORBITAL CHARGES
-------------------------------
  0 C s       :     2.885841  s :     2.885841
      pz      :     1.107312  p :     2.922193
      px      :     0.727745
      py      :     1.087136
      dz2     :     0.044134  d :     0.177043
      dxz     :     0.037294
      dyz     :     0.054254
      dx2y2   :     0.026513
      dxy     :     0.014848
  1 C s       :     2.846457  s :     2.846457
      pz      :     1.069768  p :     3.182974
      px      :     1.097910
      py      :     1.015297
      dz2     :     0.062926  d :     0.214763
      dxz     :     0.025439
      dyz     :     0.066090
      dx2y2   :     0.038018
      dxy     :     0.022289
  2 Cls       :     5.941997  s :     5.941997
      pz      :     3.953043  p :    11.780880
      px      :     3.860356
      py      :     3.967481
      dz2     :     0.010078  d :     0.051634
      dxz     :     0.010675
      dyz     :     0.009861
      dx2y2   :     0.010766
      dxy     :     0.010254
  3 Cls       :     5.843695  s :     5.843695
      pz      :     3.958260  p :    11.583015
      px      :     3.665989
      py      :     3.958765
      dz2     :     0.011862  d :     0.061357
      dxz     :     0.011859
      dyz     :     0.010012
      dx2y2   :     0.015853
      dxy     :     0.011771
  4 H s       :     0.821098  s :     0.821098
  5 H s       :     0.875875  s :     0.875875
  6 H s       :     0.898528  s :     0.898528
  7 C s       :     2.883147  s :     2.883147
      pz      :     1.103207  p :     3.271866
      px      :     1.092880
      py      :     1.075779
      dz2     :     0.028344  d :     0.131098
      dxz     :     0.017032
      dyz     :     0.031739
      dx2y2   :     0.038727
      dxy     :     0.015257
  8 H s       :     0.875124  s :     0.875124
  9 H s       :     0.888230  s :     0.888230
 10 H s       :     0.885350  s :     0.885350
 11 N s       :     3.191182  s :     3.191182
      pz      :     1.641182  p :     4.107364
      px      :     1.255064
      py      :     1.211118
      dz2     :     0.009431  d :     0.073824
      dxz     :     0.014033
      dyz     :     0.015844
      dx2y2   :     0.010031
      dxy     :     0.024486
 12 H s       :     0.809760  s :     0.809760
 13 H s       :     0.795706  s :     0.795706


                      *****************************
                      * MAYER POPULATION ANALYSIS *
                      *****************************

  NA   - Mulliken gross atomic population
  ZA   - Total nuclear charge
  QA   - Mulliken gross atomic charge
  VA   - Mayer's total valence
  BVA  - Mayer's bonded valence
  FA   - Mayer's free valence

  ATOM       NA         ZA         QA         VA         BVA        FA
  0 C      6.0755     6.0000    -0.0755     3.7299     3.3950     0.3349
  1 C      6.2349     6.0000    -0.2349     3.6308     3.2865     0.3443
  2 Cl    17.8367    17.0000    -0.8367     0.6117     0.1985     0.4132
  3 Cl    17.6011    17.0000    -0.6011     0.9007     0.4991     0.4016
  4 H      0.6718     1.0000     0.3282     0.8374     0.7812     0.0562
  5 H      0.7421     1.0000     0.2579     0.9006     0.8626     0.0380
  6 H      0.7768     1.0000     0.2232     0.9265     0.8864     0.0401
  7 C      6.6200     6.0000    -0.6200     3.7948     3.5197     0.2751
  8 H      0.7445     1.0000     0.2555     0.9025     0.8654     0.0371
  9 H      0.7831     1.0000     0.2169     0.9182     0.8806     0.0377
 10 H      0.7796     1.0000     0.2204     0.9070     0.8669     0.0402
 11 N      7.8373     7.0000    -0.8373     2.7964     2.4602     0.3362
 12 H      0.6689     1.0000     0.3311     0.8564     0.8159     0.0405
 13 H      0.6278     1.0000     0.3722     0.8373     0.7979     0.0395

  Mayer bond orders larger than 0.1
B(  0-C ,  1-C ) :   1.3704 B(  0-C ,  2-Cl) :   0.2102 B(  0-C ,  5-H ) :   0.8908 
B(  0-C ,  7-C ) :   0.8998 B(  1-C ,  4-H ) :   0.2799 B(  1-C ,  6-H ) :   0.9100 
B(  1-C , 11-N ) :   0.8517 B(  3-Cl,  4-H ) :   0.4605 B(  7-C ,  8-H ) :   0.8944 
B(  7-C ,  9-H ) :   0.9121 B(  7-C , 10-H ) :   0.8863 B( 11-N , 12-H ) :   0.8180 
B( 11-N , 13-H ) :   0.7974 


                *******************************************
                * RELAXED MP2 DENSITY POPULATION ANALYSIS *
                *******************************************

------------------------------------------------------------------------------
                           ORCA POPULATION ANALYSIS
------------------------------------------------------------------------------
Input electron density              ... run.pmp2re
BaseName (.gbw .S,...)              ... run

                    ********************************
                    * MULLIKEN POPULATION ANALYSIS *
                    ********************************

-----------------------
MULLIKEN ATOMIC CHARGES
-----------------------
   0 C :   -0.121401
   1 C :   -0.219792
   2 Cl:   -0.793050
   3 Cl:   -0.546940
   4 H :    0.291391
   5 H :    0.237502
   6 H :    0.221364
   7 C :   -0.660807
   8 H :    0.256791
   9 H :    0.219270
  10 H :    0.219885
  11 N :   -0.792517
  12 H :    0.324835
  13 H :    0.363469
Sum of atomic charges:   -1.0000000

--------------------------------
MULLIKEN REDUCED ORBITAL CHARGES
--------------------------------
  0 C s       :     3.286782  s :     3.286782
      pz      :     0.914330  p :     2.744706
      px      :     0.823664
      py      :     1.006711
      dz2     :     0.020099  d :     0.089914
      dxz     :     0.017987
      dyz     :     0.027098
      dx2y2   :     0.015709
      dxy     :     0.009022
  1 C s       :     3.216884  s :     3.216884
      pz      :     0.888714  p :     2.895476
      px      :     1.028667
      py      :     0.978095
      dz2     :     0.026089  d :     0.107432
      dxz     :     0.016409
      dyz     :     0.033445
      dx2y2   :     0.019874
      dxy     :     0.011616
  2 Cls       :     5.979939  s :     5.979939
      pz      :     3.951648  p :    11.762295
      px      :     3.841974
      py      :     3.968673
      dz2     :     0.009992  d :     0.050817
      dxz     :     0.010403
      dyz     :     0.009810
      dx2y2   :     0.010459
      dxy     :     0.010153
  3 Cls       :     5.968363  s :     5.968363
      pz      :     3.952842  p :    11.518830
      px      :     3.612996
      py      :     3.952992
      dz2     :     0.011624  d :     0.059747
      dxz     :     0.011554
      dyz     :     0.009982
      dx2y2   :     0.015099
      dxy     :     0.011489
  4 H s       :     0.708609  s :     0.708609
  5 H s       :     0.762498  s :     0.762498
  6 H s       :     0.778636  s :     0.778636
  7 C s       :     3.327846  s :     3.327846
      pz      :     1.137152  p :     3.254361
      px      :     1.091501
      py      :     1.025709
      dz2     :     0.018006  d :     0.078600
      dxz     :     0.011766
      dyz     :     0.016647
      dx2y2   :     0.022468
      dxy     :     0.009713
  8 H s       :     0.743209  s :     0.743209
  9 H s       :     0.780730  s :     0.780730
 10 H s       :     0.780115  s :     0.780115
 11 N s       :     3.654120  s :     3.654120
      pz      :     1.684458  p :     4.086183
      px      :     1.242801
      py      :     1.158924
      dz2     :     0.008337  d :     0.052214
      dxz     :     0.011320
      dyz     :     0.010445
      dx2y2   :     0.006172
      dxy     :     0.015940
 12 H s       :     0.675165  s :     0.675165
 13 H s       :     0.636531  s :     0.636531


                     *******************************
                     * LOEWDIN POPULATION ANALYSIS *
                     *******************************

----------------------
LOEWDIN ATOMIC CHARGES
----------------------
   0 C :   -0.056851
   1 C :   -0.227652
   2 Cl:   -0.741650
   3 Cl:   -0.445556
   4 H :    0.166373
   5 H :    0.119090
   6 H :    0.107338
   7 C :   -0.319307
   8 H :    0.130180
   9 H :    0.116923
  10 H :    0.118685
  11 N :   -0.368793
  12 H :    0.194109
  13 H :    0.207112

-------------------------------
LOEWDIN REDUCED ORBITAL CHARGES
-------------------------------
  0 C s       :     2.881351  s :     2.881351
      pz      :     1.096372  p :     3.006941
      px      :     0.831626
      py      :     1.078943
      dz2     :     0.044031  d :     0.168558
      dxz     :     0.032579
      dyz     :     0.052188
      dx2y2   :     0.024849
      dxy     :     0.014911
  1 C s       :     2.853360  s :     2.853360
      pz      :     1.088823  p :     3.165261
      px      :     1.055078
      py      :     1.021360
      dz2     :     0.058853  d :     0.209031
      dxz     :     0.027223
      dyz     :     0.064914
      dx2y2   :     0.036297
      dxy     :     0.021743
  2 Cls       :     5.943294  s :     5.943294
      pz      :     3.946348  p :    11.746558
      px      :     3.835366
      py      :     3.964844
      dz2     :     0.010091  d :     0.051798
      dxz     :     0.010728
      dyz     :     0.009868
      dx2y2   :     0.010842
      dxy     :     0.010269
  3 Cls       :     5.844765  s :     5.844765
      pz      :     3.955529  p :    11.539332
      px      :     3.628709
      py      :     3.955095
      dz2     :     0.011885  d :     0.061459
      dxz     :     0.011852
      dyz     :     0.010009
      dx2y2   :     0.015904
      dxy     :     0.011809
  4 H s       :     0.833627  s :     0.833627
  5 H s       :     0.880910  s :     0.880910
  6 H s       :     0.892662  s :     0.892662
  7 C s       :     2.886249  s :     2.886249
      pz      :     1.116871  p :     3.312097
      px      :     1.102753
      py      :     1.092473
      dz2     :     0.026421  d :     0.120961
      dxz     :     0.015846
      dyz     :     0.028215
      dx2y2   :     0.035392
      dxy     :     0.015088
  8 H s       :     0.869820  s :     0.869820
  9 H s       :     0.883077  s :     0.883077
 10 H s       :     0.881315  s :     0.881315
 11 N s       :     3.190888  s :     3.190888
      pz      :     1.634618  p :     4.107892
      px      :     1.258810
      py      :     1.214463
      dz2     :     0.009461  d :     0.070013
      dxz     :     0.013278
      dyz     :     0.015172
      dx2y2   :     0.009553
      dxy     :     0.022550
 12 H s       :     0.805891  s :     0.805891
 13 H s       :     0.792888  s :     0.792888


                      *****************************
                      * MAYER POPULATION ANALYSIS *
                      *****************************

  NA   - Mulliken gross atomic population
  ZA   - Total nuclear charge
  QA   - Mulliken gross atomic charge
  VA   - Mayer's total valence
  BVA  - Mayer's bonded valence
  FA   - Mayer's free valence

  ATOM       NA         ZA         QA         VA         BVA        FA
  0 C      6.1214     6.0000    -0.1214     3.8343     3.5263     0.3080
  1 C      6.2198     6.0000    -0.2198     3.7439     3.4165     0.3274
  2 Cl    17.7931    17.0000    -0.7931     0.6865     0.2812     0.4052
  3 Cl    17.5469    17.0000    -0.5469     0.9725     0.5784     0.3941
  4 H      0.7086     1.0000     0.2914     0.8642     0.8090     0.0552
  5 H      0.7625     1.0000     0.2375     0.9135     0.8769     0.0365
  6 H      0.7786     1.0000     0.2214     0.9264     0.8872     0.0393
  7 C      6.6608     6.0000    -0.6608     3.8163     3.5449     0.2713
  8 H      0.7432     1.0000     0.2568     0.9035     0.8671     0.0364
  9 H      0.7807     1.0000     0.2193     0.9158     0.8789     0.0369
 10 H      0.7801     1.0000     0.2199     0.9060     0.8670     0.0391
 11 N      7.7925     7.0000    -0.7925     2.8685     2.5374     0.3312
 12 H      0.6752     1.0000     0.3248     0.8607     0.8208     0.0399
 13 H      0.6365     1.0000     0.3635     0.8490     0.8105     0.0386

  Mayer bond orders larger than 0.1
B(  0-C ,  1-C ) :   1.4208 B(  0-C ,  2-Cl) :   0.2262 B(  0-C ,  5-H ) :   0.8934 
B(  0-C ,  7-C ) :   0.9186 B(  1-C ,  4-H ) :   0.2653 B(  1-C ,  6-H ) :   0.8984 
B(  1-C , 11-N ) :   0.9051 B(  3-Cl,  4-H ) :   0.4956 B(  7-C ,  8-H ) :   0.8886 
B(  7-C ,  9-H ) :   0.9066 B(  7-C , 10-H ) :   0.8811 B( 11-N , 12-H ) :   0.8159 
B( 11-N , 13-H ) :   0.7962 


----------------------------------
MP2 DERIVATIVE INTEGRAL GENERATION
----------------------------------


Input Wavefunction Amplitudes       ... run.mp2tsaa.tmp.proc0
Input Correlated Electron Density   ... run.pmp2re
Input Energy Weighted Density       ... run.wmp2.tmp
Input SCF Electron Density          ... run.scfp.tmp

One-Electron Terms    ...
                        ... One-Electron Terms done
Prescreening matrices              ... done

Batch handling in the gradient evaluation:
Memory available                      ... 5000.0 MB
Memory per occupied orbital in Q2     ...    5.7 MB
Memory per occupied orbital in Q3     ...    0.0 MB
Total memory requirement per |i>      ...    5.7 MB
Max. Number of orbitals possible      ...    875
Number of orbitals treated per batch  ...     34
Number of batches to be done          ...      1
Batch   0: i=    0 ...    33

---------------------------------------
MP2 TOTAL ENERGY:    -1092.818109505 Eh
---------------------------------------

-----------------------------------
NORM OF THE MP2 GRADIENT:  0.004662
-----------------------------------

-------------------------   --------------------
FINAL SINGLE POINT ENERGY     -1092.818109504701
-------------------------   --------------------

------------------------------------------------------------------------------
                         ORCA GEOMETRY RELAXATION STEP
------------------------------------------------------------------------------

Reading the OPT-File                    .... done
Getting information on internals        .... done
Copying old internal coords+grads       .... done
Making the new internal coordinates     .... (new redundants).... done
Validating the new internal coordinates .... (new redundants).... done
Calculating the B-matrix                .... done
Calculating the G,G- and P matrices     .... done
Transforming gradient to internals      .... done
Projecting the internal gradient        .... done
Number of atoms                         ....  14
Number of internal coordinates          .... 103
Current Energy                          .... -1092.818109505 Eh
Current gradient norm                   ....     0.004662341 Eh/bohr
Maximum allowed component of the step   ....  0.010
Current trust radius                    ....  0.100
Evaluating the initial hessian          .... done
Projecting the Hessian                  .... done
Forming the augmented Hessian           .... done
Diagonalizing the augmented Hessian     .... done
Last element of RFO vector              ....  0.999974995
Lowest eigenvalues of augmented Hessian:
 -0.000015375  0.100000016  0.100055536  0.104459113  0.104854616
Length of the computed step             ....  0.007071911
The final length of the internal step   ....  0.007071911
Converting the step to cartesian space:
 Initial RMS(Int)=    0.0006968161
Transforming coordinates:
 Iter   0:  RMS(Cart)=    0.0011683406 RMS(Int)=    0.0006969412
 Iter   1:  RMS(Cart)=    0.0000005047 RMS(Int)=    0.0000003364
 Iter   2:  RMS(Cart)=    0.0000000004 RMS(Int)=    0.0000000006
done
Storing new coordinates                 .... done

                                .--------------------.
          ----------------------|Geometry convergence|-------------------------
          Item                value                   Tolerance       Converged
          ---------------------------------------------------------------------
          RMS gradient        0.0002466865            0.0005000000      YES
          MAX gradient        0.0017853815            0.0020000000      YES
          RMS step            0.0006968161            0.0070000000      YES
          MAX step            0.0035706533            0.0100000000      YES
          ........................................................
          Max(Bonds)      0.0019      Max(Angles)    0.04
          Max(Dihed)        0.08      Max(Improp)    0.00
          ---------------------------------------------------------------------

                    ***********************HURRAY********************
                    ***        THE OPTIMIZATION HAS CONVERGED     ***
                    *************************************************


    ---------------------------------------------------------------------------
                         Redundant Internal Coordinates

                          --- Optimized Parameters ---  
                            (Angstroem and degrees)

        Definition                    OldVal   dE/dq     Step     FinalVal
    ----------------------------------------------------------------------------
     1. B(C   1,C   0)                1.3669  0.000447 -0.0005    1.3664   
     2. B(Cl  2,C   1)                3.2552 -0.000607  0.0006    3.2558   
     3. B(Cl  2,C   0)                2.5940 -0.000959  0.0014    2.5954   
     4. B(H   4,C   1)                1.4865 -0.001785  0.0019    1.4883   
     5. B(H   4,Cl  3)                1.5082 -0.000391  0.0004    1.5086   
     6. B(H   5,C   0)                1.0848  0.000208 -0.0002    1.0846   
     7. B(H   5,Cl  2)                2.6233 -0.000571  0.0004    2.6237   
     8. B(H   6,C   1)                1.0915  0.000021 -0.0000    1.0915   
     9. B(C   7,C   0)                1.4911 -0.000011  0.0001    1.4912   
    10. B(C   7,Cl  2)                3.2105 -0.000614  0.0007    3.2112   
    11. B(H   8,C   7)                1.0886  0.000014 -0.0000    1.0885   
    12. B(H   8,Cl  2)                2.9622 -0.000103 -0.0001    2.9621   
    13. B(H   9,C   7)                1.0912 -0.000016  0.0000    1.0913   
    14. B(H  10,C   7)                1.0981 -0.000030  0.0000    1.0981   
    15. B(N  11,C   1)                1.4385  0.000062 -0.0000    1.4384   
    16. B(H  12,N  11)                1.0134  0.000003 -0.0000    1.0134   
    17. B(H  13,N  11)                1.0163  0.000011 -0.0000    1.0163   
    18. B(H  13,Cl  2)                2.8763 -0.000027 -0.0000    2.8763   
    19. A(C   1,C   0,Cl  2)          106.37 -0.000009   -0.02    106.36   
    20. A(Cl  2,C   0,H   5)           79.51  0.000129   -0.04     79.47   
    21. A(C   1,C   0,H   5)          116.88  0.000002   -0.00    116.87   
    22. A(Cl  2,C   0,C   7)          100.09  0.000110   -0.03    100.06   
    23. A(C   1,C   0,C   7)          123.00 -0.000057    0.02    123.02   
    24. A(H   5,C   0,C   7)          117.05 -0.000021    0.01    117.06   
    25. A(C   0,C   1,Cl  2)           49.87 -0.000112    0.03     49.90   
    26. A(H   6,C   1,N  11)          115.28 -0.000007   -0.00    115.27   
    27. A(H   4,C   1,H   6)           99.43  0.000111   -0.04     99.39   
    28. A(C   0,C   1,N  11)          121.31  0.000013    0.01    121.32   
    29. A(C   0,C   1,H   6)          117.89 -0.000039    0.01    117.91   
    30. A(C   0,C   1,H   4)           89.96 -0.000040    0.02     89.98   
    31. A(Cl  2,C   1,N  11)           90.17  0.000092   -0.01     90.16   
    32. A(Cl  2,C   1,H   6)          109.77 -0.000047    0.02    109.79   
    33. A(Cl  2,C   1,H   4)          137.91 -0.000147    0.04    137.96   
    34. A(H   4,C   1,N  11)          104.29 -0.000001   -0.01    104.28   
    35. A(C   0,Cl  2,C   1)           23.76  0.000121   -0.01     23.75   
    36. A(C   1,Cl  2,C   7)           45.72  0.000138   -0.01     45.71   
    37. A(C   0,Cl  2,C   7)           27.21  0.000040   -0.00     27.21   
    38. A(C   1,H   4,Cl  3)          166.66  0.000047   -0.01    166.65   
    39. A(Cl  2,C   7,H   9)           97.46  0.000005    0.00     97.46   
    40. A(C   0,C   7,Cl  2)           52.70 -0.000150    0.03     52.73   
    41. A(H   8,C   7,H   9)          108.67  0.000006   -0.01    108.66   
    42. A(C   0,C   7,H   9)          111.09  0.000017   -0.01    111.08   
    43. A(H   9,C   7,H  10)          108.69  0.000034   -0.02    108.67   
    44. A(C   0,C   7,H   8)          109.97  0.000056    0.01    109.98   
    45. A(H   8,C   7,H  10)          108.98 -0.000143    0.01    108.99   
    46. A(Cl  2,C   7,H   8)           67.12  0.000231   -0.04     67.08   
    47. A(C   0,C   7,H  10)          109.40  0.000026    0.01    109.42   
    48. A(Cl  2,C   7,H  10)          153.01 -0.000062    0.02    153.03   
    49. A(H  12,N  11,H  13)          109.03 -0.000001   -0.01    109.03   
    50. A(C   1,N  11,H  13)          106.65  0.000064   -0.01    106.65   
    51. A(C   1,N  11,H  12)          111.16 -0.000009   -0.00    111.16   
    52. D(Cl  2,C   1,C   0,C   7)    114.11  0.000105   -0.04    114.07   
    53. D(N  11,C   1,C   0,C   7)    173.56  0.000115   -0.04    173.51   
    54. D(H   4,C   1,C   0,Cl  2)    166.22 -0.000013    0.00    166.22   
    55. D(N  11,C   1,C   0,Cl  2)     59.45  0.000010    0.00     59.45   
    56. D(N  11,C   1,C   0,H   5)    -26.90 -0.000135    0.06    -26.84   
    57. D(H   4,C   1,C   0,H   5)     79.87 -0.000158    0.06     79.93   
    58. D(H   6,C   1,C   0,Cl  2)    -93.11  0.000088   -0.04    -93.15   
    59. D(Cl  2,C   1,C   0,H   5)    -86.35 -0.000145    0.06    -86.29   
    60. D(H   4,C   1,C   0,C   7)    -79.67  0.000092   -0.04    -79.71   
    61. D(H   6,C   1,C   0,H   5)   -179.46 -0.000057    0.02   -179.44   
    62. D(H   6,C   1,C   0,C   7)     21.00  0.000193   -0.08     20.92   
    63. D(C   7,Cl  2,C   0,C   1)    128.96 -0.000012   -0.00    128.96   
    64. D(C   1,Cl  2,C   0,H   5)    115.14  0.000033   -0.01    115.13   
    65. D(C   7,Cl  2,C   0,H   5)   -115.90  0.000021   -0.01   -115.91   
    66. D(C   7,Cl  2,C   1,H   4)    -50.59  0.000068   -0.02    -50.62   
    67. D(C   1,Cl  2,C   0,C   7)   -128.96  0.000012    0.00   -128.96   
    68. D(C   7,Cl  2,C   1,H   6)     80.54  0.000004   -0.01     80.54   
    69. D(C   0,Cl  2,C   1,H   4)    -20.82  0.000041   -0.02    -20.84   
    70. D(C   7,Cl  2,C   1,N  11)   -162.41  0.000025   -0.01   -162.42   
    71. D(C   0,Cl  2,C   1,N  11)   -132.63 -0.000002   -0.00   -132.64   
    72. D(C   0,Cl  2,C   1,H   6)    110.32 -0.000023    0.00    110.32   
    73. D(C   7,Cl  2,C   1,C   0)    -29.77  0.000027   -0.01    -29.78   
    74. D(Cl  3,H   4,C   1,Cl  2)   -138.81 -0.000033    0.00   -138.81   
    75. D(Cl  3,H   4,C   1,N  11)    -32.15  0.000027   -0.01    -32.16   
    76. D(Cl  3,H   4,C   1,H   6)     87.12  0.000062   -0.03     87.09   
    77. D(Cl  3,H   4,C   1,C   0)   -154.58  0.000025   -0.02   -154.59   
    78. D(H   9,C   7,C   0,C   1)    -34.01 -0.000127    0.06    -33.95   
    79. D(H   8,C   7,C   0,Cl  2)    -37.16 -0.000135    0.04    -37.12   
    80. D(H   8,C   7,C   0,H   5)     46.14  0.000063   -0.03     46.11   
    81. D(H   9,C   7,C   0,H   5)    166.48  0.000119   -0.04    166.44   
    82. D(H   8,C   7,C   0,C   1)   -154.35 -0.000183    0.07   -154.28   
    83. D(H  10,C   7,Cl  2,C   1)     80.82 -0.000141    0.07     80.89   
    84. D(H   9,C   7,Cl  2,C   1)    -84.93  0.000032    0.01    -84.93   
    85. D(H   9,C   7,Cl  2,C   0)   -110.88 -0.000040    0.01   -110.86   
    86. D(H   8,C   7,Cl  2,C   1)    167.90  0.000026    0.02    167.92   
    87. D(H   8,C   7,Cl  2,C   0)    141.96 -0.000047    0.03    141.99   
    88. D(C   0,C   7,Cl  2,C   1)     25.95  0.000073   -0.01     25.94   
    89. D(Cl  2,C   7,C   0,H   5)     83.30  0.000197   -0.06     83.23   
    90. D(Cl  2,C   7,C   0,C   1)   -117.19 -0.000048    0.04   -117.15   
    91. D(H  10,C   7,C   0,Cl  2)   -156.82 -0.000009    0.01   -156.82   
    92. D(H  10,C   7,C   0,H   5)    -73.52  0.000189   -0.06    -73.58   
    93. D(H  10,C   7,Cl  2,C   0)     54.87 -0.000214    0.08     54.95   
    94. D(H  10,C   7,C   0,C   1)     85.99 -0.000057    0.04     86.03   
    95. D(H   9,C   7,C   0,Cl  2)     83.18 -0.000079    0.02     83.20   
    96. D(H  13,N  11,C   1,Cl  2)      6.65 -0.000058    0.01      6.67   
    97. D(H  13,N  11,C   1,H   4)   -133.40  0.000064   -0.02   -133.42   
    98. D(H  13,N  11,C   1,H   6)    118.70 -0.000065    0.03    118.74   
    99. D(H  13,N  11,C   1,C   0)    -34.53  0.000019   -0.01    -34.53   
   100. D(H  12,N  11,C   1,Cl  2)    125.39 -0.000025    0.00    125.39   
   101. D(H  12,N  11,C   1,H   4)    -14.66  0.000096   -0.04    -14.70   
   102. D(H  12,N  11,C   1,H   6)   -122.56 -0.000033    0.02   -122.54   
   103. D(H  12,N  11,C   1,C   0)     84.21  0.000052   -0.02     84.19   
    ----------------------------------------------------------------------------
                 *******************************************************
                 *** FINAL ENERGY EVALUATION AT THE STATIONARY POINT ***
                 ***               (AFTER    1 CYCLES)               ***
                 *******************************************************
---------------------------------
CARTESIAN COORDINATES (ANGSTROEM)
---------------------------------
  C     -0.275856   -0.124309   -0.175504
  C     -0.227848   -0.094900    1.189711
  Cl     2.171388    0.139041   -0.998778
  Cl    -3.128360    0.437915    1.594167
  H     -1.703233    0.095311    1.236965
  H     -0.339727    0.831303   -0.684555
  H     -0.153931   -1.046662    1.718888
  C     -0.682002   -1.333190   -0.948452
  H     -0.235795   -1.307260   -1.940987
  H     -0.361254   -2.246851   -0.445288
  H     -1.775355   -1.352180   -1.048502
  N      0.299337    1.042472    1.895057
  H     -0.407056    1.759398    2.012975
  H      1.055623    1.412939    1.326154

----------------------------
CARTESIAN COORDINATES (A.U.)
----------------------------
  NO LB      ZA    FRAG     MASS         X           Y           Z
[...]
      dxy     :     0.010140
  3 Cls       :     5.973933  s :     5.973933
      pz      :     3.956692  p :    11.566731
      px      :     3.651858
      py      :     3.958181
      dz2     :     0.011602  d :     0.059694
      dxz     :     0.011580
      dyz     :     0.009987
      dx2y2   :     0.015062
      dxy     :     0.011463
  4 H s       :     0.671881  s :     0.671881
  5 H s       :     0.742131  s :     0.742131
  6 H s       :     0.776692  s :     0.776692
  7 C s       :     3.338882  s :     3.338882
      pz      :     1.114047  p :     3.191851
      px      :     1.080995
      py      :     0.996809
      dz2     :     0.020123  d :     0.089361
      dxz     :     0.013188
      dyz     :     0.019837
      dx2y2   :     0.025919
      dxy     :     0.010295
  8 H s       :     0.744396  s :     0.744396
  9 H s       :     0.783144  s :     0.783144
 10 H s       :     0.779746  s :     0.779746
 11 N s       :     3.681485  s :     3.681485
      pz      :     1.694093  p :     4.099400
      px      :     1.243631
      py      :     1.161676
      dz2     :     0.008358  d :     0.056319
      dxz     :     0.012133
      dyz     :     0.011236
      dx2y2   :     0.006606
      dxy     :     0.017987
 12 H s       :     0.668892  s :     0.668892
 13 H s       :     0.627731  s :     0.627731


                     *******************************
                     * LOEWDIN POPULATION ANALYSIS *
                     *******************************

----------------------
LOEWDIN ATOMIC CHARGES
----------------------
   0 C :    0.014628
   1 C :   -0.243923
   2 Cl:   -0.775273
   3 Cl:   -0.487471
   4 H :    0.179090
   5 H :    0.124094
   6 H :    0.101486
   7 C :   -0.286091
   8 H :    0.124904
   9 H :    0.111752
  10 H :    0.114551
  11 N :   -0.372322
  12 H :    0.190233
  13 H :    0.204342

-------------------------------
LOEWDIN REDUCED ORBITAL CHARGES
-------------------------------
  0 C s       :     2.885636  s :     2.885636
      pz      :     1.107464  p :     2.922699
      px      :     0.728189
      py      :     1.087046
      dz2     :     0.044143  d :     0.177037
      dxz     :     0.037279
      dyz     :     0.054298
      dx2y2   :     0.026494
      dxy     :     0.014822
  1 C s       :     2.846389  s :     2.846389
      pz      :     1.070044  p :     3.182749
      px      :     1.097444
      py      :     1.015262
      dz2     :     0.062905  d :     0.214784
      dxz     :     0.025466
      dyz     :     0.066145
      dx2y2   :     0.037981
      dxy     :     0.022288
  2 Cls       :     5.942146  s :     5.942146
      pz      :     3.953110  p :    11.781506
      px      :     3.860890
      py      :     3.967507
      dz2     :     0.010076  d :     0.051621
      dxz     :     0.010672
      dyz     :     0.009860
      dx2y2   :     0.010761
      dxy     :     0.010252
  3 Cls       :     5.843798  s :     5.843798
      pz      :     3.958133  p :    11.582333
      px      :     3.665448
      py      :     3.958752
      dz2     :     0.011854  d :     0.061340
      dxz     :     0.011866
      dyz     :     0.010012
      dx2y2   :     0.015841
      dxy     :     0.011767
  4 H s       :     0.820910  s :     0.820910
  5 H s       :     0.875906  s :     0.875906
  6 H s       :     0.898514  s :     0.898514
  7 C s       :     2.883161  s :     2.883161
      pz      :     1.103250  p :     3.271844
      px      :     1.092835
      py      :     1.075759
      dz2     :     0.028314  d :     0.131087
      dxz     :     0.017055
      dyz     :     0.031750
      dx2y2   :     0.038724
      dxy     :     0.015244
  8 H s       :     0.875096  s :     0.875096
  9 H s       :     0.888248  s :     0.888248
 10 H s       :     0.885449  s :     0.885449
 11 N s       :     3.191184  s :     3.191184
      pz      :     1.641104  p :     4.107310
      px      :     1.255100
      py      :     1.211106
      dz2     :     0.009433  d :     0.073828
      dxz     :     0.014037
      dyz     :     0.015846
      dx2y2   :     0.010030
      dxy     :     0.024482
 12 H s       :     0.809767  s :     0.809767
 13 H s       :     0.795658  s :     0.795658


                      *****************************
                      * MAYER POPULATION ANALYSIS *
                      *****************************

  NA   - Mulliken gross atomic population
  ZA   - Total nuclear charge
  QA   - Mulliken gross atomic charge
  VA   - Mayer's total valence
  BVA  - Mayer's bonded valence
  FA   - Mayer's free valence

  ATOM       NA         ZA         QA         VA         BVA        FA
  0 C      6.0753     6.0000    -0.0753     3.7301     3.3952     0.3349
  1 C      6.2351     6.0000    -0.2351     3.6312     3.2868     0.3444
  2 Cl    17.8374    17.0000    -0.8374     0.6106     0.1975     0.4131
  3 Cl    17.6004    17.0000    -0.6004     0.9017     0.5001     0.4016
  4 H      0.6719     1.0000     0.3281     0.8376     0.7813     0.0562
  5 H      0.7421     1.0000     0.2579     0.9006     0.8627     0.0380
  6 H      0.7767     1.0000     0.2233     0.9265     0.8864     0.0401
  7 C      6.6201     6.0000    -0.6201     3.7950     3.5199     0.2751
  8 H      0.7444     1.0000     0.2556     0.9025     0.8654     0.0371
  9 H      0.7831     1.0000     0.2169     0.9182     0.8805     0.0377
 10 H      0.7797     1.0000     0.2203     0.9070     0.8669     0.0402
 11 N      7.8372     7.0000    -0.8372     2.7964     2.4602     0.3362
 12 H      0.6689     1.0000     0.3311     0.8564     0.8159     0.0405
 13 H      0.6277     1.0000     0.3723     0.8373     0.7978     0.0395

  Mayer bond orders larger than 0.1
B(  0-C ,  1-C ) :   1.3717 B(  0-C ,  2-Cl) :   0.2092 B(  0-C ,  5-H ) :   0.8908 
B(  0-C ,  7-C ) :   0.8998 B(  1-C ,  4-H ) :   0.2789 B(  1-C ,  6-H ) :   0.9100 
B(  1-C , 11-N ) :   0.8518 B(  3-Cl,  4-H ) :   0.4615 B(  7-C ,  8-H ) :   0.8943 
B(  7-C ,  9-H ) :   0.9121 B(  7-C , 10-H ) :   0.8865 B( 11-N , 12-H ) :   0.8181 
B( 11-N , 13-H ) :   0.7974 


                *******************************************
                * RELAXED MP2 DENSITY POPULATION ANALYSIS *
                *******************************************

------------------------------------------------------------------------------
                           ORCA POPULATION ANALYSIS
------------------------------------------------------------------------------
Input electron density              ... run.pmp2re
BaseName (.gbw .S,...)              ... run

                    ********************************
                    * MULLIKEN POPULATION ANALYSIS *
                    ********************************

-----------------------
MULLIKEN ATOMIC CHARGES
-----------------------
   0 C :   -0.121028
   1 C :   -0.219776
   2 Cl:   -0.793862
   3 Cl:   -0.546347
   4 H :    0.291246
   5 H :    0.237513
   6 H :    0.221396
   7 C :   -0.660932
   8 H :    0.256884
   9 H :    0.219269
  10 H :    0.219743
  11 N :   -0.792466
  12 H :    0.324817
  13 H :    0.363544
Sum of atomic charges:   -1.0000000

--------------------------------
MULLIKEN REDUCED ORBITAL CHARGES
--------------------------------
  0 C s       :     3.286309  s :     3.286309
      pz      :     0.914223  p :     2.744814
      px      :     0.823892
      py      :     1.006698
      dz2     :     0.020100  d :     0.089906
      dxz     :     0.017980
      dyz     :     0.027114
      dx2y2   :     0.015705
      dxy     :     0.009008
  1 C s       :     3.217018  s :     3.217018
      pz      :     0.888869  p :     2.895308
      px      :     1.028335
      py      :     0.978104
      dz2     :     0.026087  d :     0.107450
      dxz     :     0.016418
      dyz     :     0.033469
      dx2y2   :     0.019862
      dxy     :     0.011614
  2 Cls       :     5.979967  s :     5.979967
      pz      :     3.951721  p :    11.763090
      px      :     3.842679
      py      :     3.968690
      dz2     :     0.009990  d :     0.050806
      dxz     :     0.010401
      dyz     :     0.009809
      dx2y2   :     0.010455
      dxy     :     0.010151
  3 Cls       :     5.968384  s :     5.968384
      pz      :     3.952686  p :    11.518232
      px      :     3.612553
      py      :     3.952993
      dz2     :     0.011617  d :     0.059731
      dxz     :     0.011559
      dyz     :     0.009982
      dx2y2   :     0.015088
      dxy     :     0.011485
  4 H s       :     0.708754  s :     0.708754
  5 H s       :     0.762487  s :     0.762487
  6 H s       :     0.778604  s :     0.778604
  7 C s       :     3.327911  s :     3.327911
      pz      :     1.137237  p :     3.254423
      px      :     1.091476
      py      :     1.025710
      dz2     :     0.017989  d :     0.078598
      dxz     :     0.011782
      dyz     :     0.016653
      dx2y2   :     0.022465
      dxy     :     0.009710
  8 H s       :     0.743116  s :     0.743116
  9 H s       :     0.780731  s :     0.780731
 10 H s       :     0.780257  s :     0.780257
 11 N s       :     3.654125  s :     3.654125
      pz      :     1.684412  p :     4.086124
      px      :     1.242800
      py      :     1.158911
      dz2     :     0.008339  d :     0.052218
      dxz     :     0.011323
      dyz     :     0.010446
      dx2y2   :     0.006172
      dxy     :     0.015937
 12 H s       :     0.675183  s :     0.675183
 13 H s       :     0.636456  s :     0.636456


                     *******************************
                     * LOEWDIN POPULATION ANALYSIS *
                     *******************************

----------------------
LOEWDIN ATOMIC CHARGES
----------------------
   0 C :   -0.056940
   1 C :   -0.227378
   2 Cl:   -0.742497
   3 Cl:   -0.445067
   4 H :    0.166485
   5 H :    0.119090
   6 H :    0.107336
   7 C :   -0.319289
   8 H :    0.130216
   9 H :    0.116919
  10 H :    0.118616
  11 N :   -0.368750
  12 H :    0.194111
  13 H :    0.207148

-------------------------------
LOEWDIN REDUCED ORBITAL CHARGES
-------------------------------
  0 C s       :     2.881178  s :     2.881178
      pz      :     1.096567  p :     3.007210
      px      :     0.831747
      py      :     1.078897
      dz2     :     0.044039  d :     0.168552
      dxz     :     0.032563
      dyz     :     0.052231
      dx2y2   :     0.024833
      dxy     :     0.014886
  1 C s       :     2.853287  s :     2.853287
      pz      :     1.089019  p :     3.165029
      px      :     1.054698
      py      :     1.021312
      dz2     :     0.058844  d :     0.209062
      dxz     :     0.027244
      dyz     :     0.064968
      dx2y2   :     0.036263
      dxy     :     0.021743
  2 Cls       :     5.943429  s :     5.943429
      pz      :     3.946421  p :    11.747284
      px      :     3.835997
      py      :     3.964867
      dz2     :     0.010089  d :     0.051784
      dxz     :     0.010724
      dyz     :     0.009867
      dx2y2   :     0.010837
      dxy     :     0.010267
  3 Cls       :     5.844879  s :     5.844879
      pz      :     3.955392  p :    11.538753
      px      :     3.628268
      py      :     3.955094
      dz2     :     0.011876  d :     0.061436
      dxz     :     0.011858
      dyz     :     0.010008
      dx2y2   :     0.015889
      dxy     :     0.011804
  4 H s       :     0.833515  s :     0.833515
  5 H s       :     0.880910  s :     0.880910
  6 H s       :     0.892664  s :     0.892664
  7 C s       :     2.886264  s :     2.886264
      pz      :     1.116915  p :     3.312079
      px      :     1.102723
      py      :     1.092440
      dz2     :     0.026394  d :     0.120946
      dxz     :     0.015866
      dyz     :     0.028223
      dx2y2   :     0.035385
      dxy     :     0.015077
  8 H s       :     0.869784  s :     0.869784
  9 H s       :     0.883081  s :     0.883081
 10 H s       :     0.881384  s :     0.881384
 11 N s       :     3.190893  s :     3.190893
      pz      :     1.634542  p :     4.107841
      px      :     1.258843
      py      :     1.214457
      dz2     :     0.009463  d :     0.070017
      dxz     :     0.013282
      dyz     :     0.015173
      dx2y2   :     0.009553
      dxy     :     0.022546
 12 H s       :     0.805889  s :     0.805889
 13 H s       :     0.792852  s :     0.792852


                      *****************************
                      * MAYER POPULATION ANALYSIS *
                      *****************************

  NA   - Mulliken gross atomic population
  ZA   - Total nuclear charge
  QA   - Mulliken gross atomic charge
  VA   - Mayer's total valence
  BVA  - Mayer's bonded valence
  FA   - Mayer's free valence

  ATOM       NA         ZA         QA         VA         BVA        FA
  0 C      6.1210     6.0000    -0.1210     3.8342     3.5261     0.3081
  1 C      6.2198     6.0000    -0.2198     3.7441     3.4166     0.3275
  2 Cl    17.7939    17.0000    -0.7939     0.6853     0.2802     0.4052
  3 Cl    17.5463    17.0000    -0.5463     0.9731     0.5790     0.3941
  4 H      0.7088     1.0000     0.2912     0.8644     0.8092     0.0552
  5 H      0.7625     1.0000     0.2375     0.9135     0.8770     0.0365
  6 H      0.7786     1.0000     0.2214     0.9264     0.8872     0.0392
  7 C      6.6609     6.0000    -0.6609     3.8164     3.5450     0.2714
  8 H      0.7431     1.0000     0.2569     0.9035     0.8671     0.0363
  9 H      0.7807     1.0000     0.2193     0.9157     0.8788     0.0369
 10 H      0.7803     1.0000     0.2197     0.9061     0.8670     0.0391
 11 N      7.7925     7.0000    -0.7925     2.8685     2.5374     0.3312
 12 H      0.6752     1.0000     0.3248     0.8607     0.8208     0.0400
 13 H      0.6365     1.0000     0.3635     0.8490     0.8105     0.0386

  Mayer bond orders larger than 0.1
B(  0-C ,  1-C ) :   1.4218 B(  0-C ,  2-Cl) :   0.2251 B(  0-C ,  5-H ) :   0.8934 
B(  0-C ,  7-C ) :   0.9186 B(  1-C ,  4-H ) :   0.2644 B(  1-C ,  6-H ) :   0.8984 
B(  1-C , 11-N ) :   0.9051 B(  3-Cl,  4-H ) :   0.4965 B(  7-C ,  8-H ) :   0.8885 
B(  7-C ,  9-H ) :   0.9066 B(  7-C , 10-H ) :   0.8812 B( 11-N , 12-H ) :   0.8159 
B( 11-N , 13-H ) :   0.7961 


----------------------------------
MP2 DERIVATIVE INTEGRAL GENERATION
----------------------------------


Input Wavefunction Amplitudes       ... run.mp2tsaa.tmp.proc0
Input Correlated Electron Density   ... run.pmp2re
Input Energy Weighted Density       ... run.wmp2.tmp
Input SCF Electron Density          ... run.scfp.tmp

One-Electron Terms    ...
                        ... One-Electron Terms done
Prescreening matrices              ... done

Batch handling in the gradient evaluation:
Memory available                      ... 5000.0 MB
Memory per occupied orbital in Q2     ...    5.7 MB
Memory per occupied orbital in Q3     ...    0.0 MB
Total memory requirement per |i>      ...    5.7 MB
Max. Number of orbitals possible      ...    875
Number of orbitals treated per batch  ...     34
Number of batches to be done          ...      1
Batch   0: i=    0 ...    33

---------------------------------------
MP2 TOTAL ENERGY:    -1092.818124189 Eh
---------------------------------------

-----------------------------------
NORM OF THE MP2 GRADIENT:  0.004668
-----------------------------------

-------------------------   --------------------
FINAL SINGLE POINT ENERGY     -1092.818124188633
-------------------------   --------------------

                                *** OPTIMIZATION RUN DONE ***

                            ***************************************
                            *     ORCA property calculations      *
                            ***************************************

                                    ---------------------
                                    Active property flags
                                    ---------------------
   (+) Dipole Moment


------------------------------------------------------------------------------
                       ORCA ELECTRIC PROPERTIES CALCULATION
------------------------------------------------------------------------------

Dipole Moment Calculation                       ... on
Quadrupole Moment Calculation                   ... off
Polarizability Calculation                      ... off
GBWName                                         ... run.gbw
Electron density file                           ... run.scfp.tmp
The origin for moment calculation is the CENTER OF MASS  = (-0.702049,  0.213010  0.741700)

-------------
DIPOLE MOMENT
-------------
                                X             Y             Z
Electronic contribution:     -0.98027       2.71383       0.75356
Nuclear contribution   :     -0.59915      -3.05208      -0.64191
                        -----------------------------------------
Total Dipole Moment    :     -1.57942      -0.33825       0.11165
                        -----------------------------------------
Magnitude (a.u.)       :      1.61908
Magnitude (Debye)      :      4.11538


                         *** MP2 UNRELAXED DENSITY ***

------------------------------------------------------------------------------
                       ORCA ELECTRIC PROPERTIES CALCULATION
------------------------------------------------------------------------------

Dipole Moment Calculation                       ... on
Quadrupole Moment Calculation                   ... off
Polarizability Calculation                      ... off
GBWName                                         ... run.gbw
Electron density file                           ... run.pmp2ur
The origin for moment calculation is the CENTER OF MASS  = (-0.702049,  0.213010  0.741700)

-------------
DIPOLE MOMENT
-------------
                                X             Y             Z
Electronic contribution:     -0.97565       2.72306       0.77722
Nuclear contribution   :     -0.59915      -3.05208      -0.64191
                        -----------------------------------------
Total Dipole Moment    :     -1.57479      -0.32902       0.13531
                        -----------------------------------------
Magnitude (a.u.)       :      1.61448
Magnitude (Debye)      :      4.10368


                           *** MP2 RELAXED DENSITY ***

------------------------------------------------------------------------------
                       ORCA ELECTRIC PROPERTIES CALCULATION
------------------------------------------------------------------------------

Dipole Moment Calculation                       ... on
Quadrupole Moment Calculation                   ... off
Polarizability Calculation                      ... off
GBWName                                         ... run.gbw
Electron density file                           ... run.pmp2re
The origin for moment calculation is the CENTER OF MASS  = (-0.702049,  0.213010  0.741700)

-------------
DIPOLE MOMENT
-------------
                                X             Y             Z
Electronic contribution:     -1.01812       2.82015       0.96429
Nuclear contribution   :     -0.59915      -3.05208      -0.64191
                        -----------------------------------------
Total Dipole Moment    :     -1.61727      -0.23193       0.32238
                        -----------------------------------------
Magnitude (a.u.)       :      1.66531
Magnitude (Debye)      :      4.23289


Timings for individual modules:

Sum of individual times         ...      367.100 sec (=   6.118 min)
GTO integral calculation        ...        2.751 sec (=   0.046 min)   0.7 %
SCF iterations                  ...      145.775 sec (=   2.430 min)  39.7 %
MP2 module                      ...      216.550 sec (=   3.609 min)  59.0 %
Geometry relaxation             ...        2.025 sec (=   0.034 min)   0.6 %
                             ****ORCA TERMINATED NORMALLY****
TOTAL RUN TIME: 0 days 0 hours 6 minutes 7 seconds 558 msec
