
                                 *****************
                                 * O   R   C   A *
                                 *****************

           --- An Ab Initio, DFT and Semiempirical electronic structure package ---

                  #######################################################
                  #                        -***-                        #
                  #  Department of molecular theory and spectroscopy    #
                  #              Directorship: Frank Neese              #
                  # Max Planck Institute for Chemical Energy Conversion #
                  #                  D-45470 Muelheim/Ruhr              #
                  #                       Germany                       #
                  #                                                     #
                  #                  All rights reserved                #
                  #                        -***-                        #
                  #######################################################


                         Program Version 4.0.1.2 - RELEASE -


 With contributions from (in alphabetic order):
   Daniel Aravena         : Magnetic Properties
   Michael Atanasov       : Ab Initio Ligand Field Theory
   Ute Becker             : Parallelization
   Martin Brehm           : Molecular dynamics
   Dmytro Bykov           : SCF Hessian
   Vijay G. Chilkuri      : MRCI spin determinant printing
   Dipayan Datta          : RHF DLPNO-CCSD density
   Achintya Kumar Dutta   : EOM-CC, STEOM-CC
   Dmitry Ganyushin       : Spin-Orbit,Spin-Spin,Magnetic field MRCI
   Yang Guo               : DLPNO-NEVPT2, CIM, IAO-localization
   Andreas Hansen         : Spin unrestricted coupled pair/coupled cluster methods
   Lee Huntington         : MR-EOM, pCC
   Robert Izsak           : Overlap fitted RIJCOSX, COSX-SCS-MP3, EOM
   Christian Kollmar      : KDIIS, OOCD, Brueckner-CCSD(T), CCSD density
   Simone Kossmann        : Meta GGA functionals, TD-DFT gradient, OOMP2, MP2 Hessian
   Martin Krupicka        : AUTO-CI
   Dagmar Lenk            : GEPOL surface
   Dimitrios Liakos       : Extrapolation schemes; parallel MDCI
   Dimitrios Manganas     : ROCIS; embedding schemes
   Dimitrios Pantazis     : SARC Basis sets
   Taras Petrenko         : DFT Hessian,TD-DFT gradient, ASA, ECA, R-Raman, ABS, FL, XAS/XES, NRVS
   Peter Pinski           : DLPNO-MP2
   Christoph Reimann      : Effective Core Potentials
   Marius Retegan         : Local ZFS, SOC
   Christoph Riplinger    : Optimizer, TS searches, QM/MM, DLPNO-CCSD(T), (RO)-DLPNO pert. Triples
   Tobias Risthaus        : Range-separated hybrids, TD-DFT gradient, RPA, STAB
   Michael Roemelt        : Restricted open shell CIS
   Masaaki Saitow         : Open-shell DLPNO
   Barbara Sandhoefer     : DKH picture change effects
   Kantharuban Sivalingam : CASSCF convergence, NEVPT2, FIC-MRCI
   Georgi Stoychev        : AutoAux
   Boris Wezisla          : Elementary symmetry handling
   Frank Wennmohs         : Technical directorship


 We gratefully acknowledge several colleagues who have allowed us to
 interface, adapt or use parts of their codes:
   Stefan Grimme, W. Hujo, H. Kruse,             : VdW corrections, initial TS optimization,
                  C. Bannwarth                     DFT functionals, gCP, sTDA/sTD-DF
   Ed Valeev                                     : LibInt (2-el integral package), F12 methods
   Garnet Chan, S. Sharma, J. Yang, R. Olivares  : DMRG
   Ulf Ekstrom                                   : XCFun DFT Library
   Mihaly Kallay                                 : mrcc  (arbitrary order and MRCC methods)
   Andreas Klamt, Michael Diedenhofen            : otool_cosmo (COSMO solvation model)
   Jiri Pittner, Ondrej Demel                    : Mk-CCSD
   Frank Weinhold                                : gennbo (NPA and NBO analysis)
   Christopher J. Cramer and Donald G. Truhlar   : smd solvation model


 Your calculation uses the libint2 library for the computation of 2-el integrals
 For citations please refer to: http://libint.valeyev.net

 This ORCA versions uses:
   CBLAS   interface :  Fast vector & matrix operations
   LAPACKE interface :  Fast linear algebra routines
   SCALAPACK package :  Parallel linear algebra routines




*****************************************
The coordinations will be read from file: inp.xyz
*****************************************


Your calculation utilizes the basis: 6-311G(d)
   H, Li - Ne  : R. Krishnan, J. S. Binkley, R. Seeger and J. A. Pople, J. Chem. Phys. 72, 650 (1980).
   Na - Ar     : A. D. McLean and G. S. Chandler J. Chem. Phys. 72, 5639, (1980).
   K  - Ca     : J.-P. Blaudeau, M. P. McGrath, L. A. Curtiss and L. Radom, J. Chem. Phys. 107, 5016 (1997).
   Ga - Kr     : L. A. Curtiss, M. P. McGrath, J.-P. Blandeau, N. E. Davis, R. C. Binning and L. Radom, J. Chem. Phys. 103, 6104 (1995).
   Pol./Diff.
   H, Li - Cl  : T. Clark, J. Chandrasekhar and P. v. R. Schleyer, J. Comp. Chem. 4, 294 (1983).
   H - Ne      : M. J. Frisch, J. A. Pople and J. S. Binkley, J. Chem. Phys. 80, 3265 (1984).

================================================================================
                                        WARNINGS
                       Please study these warnings very carefully!
================================================================================

WARNING: Gradients needed for Numerical Frequencies
  ===> : Setting RunTyp to EnGrad
Warning: TCutStore was < 0. Adjusted to Thresh (uncritical)

WARNING: Post HF methods need fully converged wavefunctions
  ===> : Setting SCFConvForced true
         You can overwrite this default with %scf ConvForced false 


INFO   : the flag for use of LIBINT has been found!

================================================================================
                                       INPUT FILE
================================================================================
NAME = run.inp
|  1> ! MP2 6-311G(d) NoFrozenCore ExtremeSCF NumFreq
|  2> 
|  3> %pal nprocs 1
|  4> end
|  5> 
|  6> %mp2 MaxCore 5000
|  7> end
|  8> 
|  9> %freq 
| 10> restart true
| 11> end
| 12> 
| 13> %geom
| 14> Calc_Hess true
| 15> NumHess true
| 16> end
| 17> 
| 18> *xyzfile 0 1 inp.xyz
| 19> 
| 20>                          ****END OF INPUT****
================================================================================

                     *******************************
                     * Energy+Gradient Calculation *
                     *******************************

---------------------------------
CARTESIAN COORDINATES (ANGSTROEM)
---------------------------------
  C     -0.201411   -0.109977   -0.260146
  C     -0.176513   -0.191332    1.265196
  Cl     1.441051    0.323406   -0.855796
  H     -1.171186   -0.519063    1.588434
  H     -0.846123    0.717447   -0.569997
  H      0.530885   -0.974161    1.555519
  C     -0.644411   -1.406118   -0.909342
  H     -0.645042   -1.323978   -1.996893
  H      0.025222   -2.221443   -0.627620
  H     -1.657123   -1.656340   -0.580430
  N      0.158784    1.019276    1.992523
  H     -0.498896    1.756374    1.769683
  H      1.080193    1.338896    1.721738

----------------------------
CARTESIAN COORDINATES (A.U.)
----------------------------
  NO LB      ZA    FRAG     MASS         X           Y           Z
   0 C     6.0000    0    12.011   -0.380611   -0.207826   -0.491605
   1 C     6.0000    0    12.011   -0.333560   -0.361566    2.390874
   2 Cl   17.0000    0    35.453    2.723192    0.611148   -1.617221
   3 H     1.0000    0     1.008   -2.213221   -0.980887    3.001706
   4 H     1.0000    0     1.008   -1.598941    1.355779   -1.077138
   5 H     1.0000    0     1.008    1.003227   -1.840897    2.939505
   6 C     6.0000    0    12.011   -1.217761   -2.657178   -1.718407
   7 H     1.0000    0     1.008   -1.218953   -2.501955   -3.773582
   8 H     1.0000    0     1.008    0.047663   -4.197919   -1.186029
   9 H     1.0000    0     1.008   -3.131510   -3.130028   -1.096854
  10 N     7.0000    0    14.007    0.300059    1.926152    3.765323
  11 H     1.0000    0     1.008   -0.942777    3.319066    3.344216
  12 H     1.0000    0     1.008    2.041269    2.530146    3.253613

--------------------------------
INTERNAL COORDINATES (ANGSTROEM)
--------------------------------
 C      0   0   0     0.000000000000     0.00000000     0.00000000
 C      1   0   0     1.527712990235     0.00000000     0.00000000
 Cl     1   2   0     1.800083553824   109.16795609     0.00000000
 H      2   1   3     1.096022696838   107.19320739   183.58186180
 H      1   2   3     1.093751587611   109.43547070   245.37039018
 H      2   1   3     1.094312025799   108.27155131   298.84731710
 C      1   2   3     1.515812454189   112.75831526   121.70992134
 H      7   1   2     1.090649551422   111.27444949   180.49725904
 H      7   1   2     1.092030416463   110.40886307   300.77639665
 H      7   1   2     1.093791390674   109.71940118    60.46936273
 N      2   1   3     1.451551032652   117.36402180    61.77944494
 H     11   2   1     1.012677248159   110.29014153    59.04633373
 H     11   2   1     1.012164016554   109.85198545   300.59763029

---------------------------
INTERNAL COORDINATES (A.U.)
---------------------------
 C      0   0   0     0.000000000000     0.00000000     0.00000000
 C      1   0   0     2.886959162778     0.00000000     0.00000000
 Cl     1   2   0     3.401664934902   109.16795609     0.00000000
 H      2   1   3     2.071182733585   107.19320739   183.58186180
 H      1   2   3     2.066890959126   109.43547070   245.37039018
 H      2   1   3     2.067950033817   108.27155131   298.84731710
 C      1   2   3     2.864470408804   112.75831526   121.70992134
 H      7   1   2     2.061028960271   111.27444949   180.49725904
 H      7   1   2     2.063638417027   110.40886307   300.77639665
 H      7   1   2     2.066966176016   109.71940118    60.46936273
 N      2   1   3     2.743033921124   117.36402180    61.77944494
 H     11   2   1     1.913682661074   110.29014153    59.04633373
 H     11   2   1     1.912712793897   109.85198545   300.59763029

---------------------
BASIS SET INFORMATION
---------------------
There are 4 groups of distinct atoms

 Group   1 Type C   : 11s5p1d contracted to 4s3p1d pattern {6311/311/1}
 Group   2 Type Cl  : 13s10p1d contracted to 6s5p1d pattern {631111/52111/1}
 Group   3 Type H   : 5s contracted to 3s pattern {311}
 Group   4 Type N   : 11s5p1d contracted to 4s3p1d pattern {6311/311/1}

Atom   0C    basis set group =>   1
Atom   1C    basis set group =>   1
Atom   2Cl   basis set group =>   2
Atom   3H    basis set group =>   3
Atom   4H    basis set group =>   3
Atom   5H    basis set group =>   3
Atom   6C    basis set group =>   1
Atom   7H    basis set group =>   3
Atom   8H    basis set group =>   3
Atom   9H    basis set group =>   3
Atom  10N    basis set group =>   4
Atom  11H    basis set group =>   3
Atom  12H    basis set group =>   3
------------------------------------------------------------------------------
                           ORCA GTO INTEGRAL CALCULATION
------------------------------------------------------------------------------

                         BASIS SET STATISTICS AND STARTUP INFO

 # of primitive gaussian shells          ...  132
 # of primitive gaussian functions       ...  212
 # of contracted shells                  ...   68
 # of contracted basis functions         ...  122
 Highest angular momentum                ...    2
 Maximum contraction depth               ...    6
 Integral package used                   ... LIBINT
 Integral threshhold            Thresh   ...  2.500e-11
 Primitive cut-off              TCut     ...  2.500e-12


------------------------------ INTEGRAL EVALUATION ----------------------------


 * One electron integrals 
 Pre-screening matrix                    ... done
 Shell pair data                         ... done (   0.001 sec)

-------------------------------------------------------------------------------
                                 ORCA SCF
-------------------------------------------------------------------------------

------------
SCF SETTINGS
------------
Hamiltonian:
 Ab initio Hamiltonian  Method          .... Hartree-Fock(GTOs)


General Settings:
 Integral files         IntName         .... run
 Hartree-Fock type      HFTyp           .... RHF
 Total Charge           Charge          ....    0
 Multiplicity           Mult            ....    1
 Number of Electrons    NEL             ....   50
 Basis Dimension        Dim             ....  122
 Nuclear Repulsion      ENuc            ....    236.0129767585 Eh

Convergence Acceleration:
 DIIS                   CNVDIIS         .... on
   Start iteration      DIISMaxIt       ....    12
   Startup error        DIISStart       ....  0.200000
   # of expansion vecs  DIISMaxEq       ....     5
   Bias factor          DIISBfac        ....   1.050
   Max. coefficient     DIISMaxC        ....  10.000
 Newton-Raphson         CNVNR           .... off
 SOSCF                  CNVSOSCF        .... on
   Start iteration      SOSCFMaxIt      ....   150
   Startup grad/error   SOSCFStart      ....  0.003300
 Level Shifting         CNVShift        .... on
   Level shift para.    LevelShift      ....    0.2500
   Turn off err/grad.   ShiftErr        ....    0.0010
 Zerner damping         CNVZerner       .... off
 Static damping         CNVDamp         .... on
   Fraction old density DampFac         ....    0.7000
   Max. Damping (<1)    DampMax         ....    0.9800
   Min. Damping (>=0)   DampMin         ....    0.0000
   Turn off err/grad.   DampErr         ....    0.1000
 Fernandez-Rico         CNVRico         .... off

SCF Procedure:
 Maximum # iterations   MaxIter         ....   125
 SCF integral mode      SCFMode         .... Direct
   Integral package                     .... LIBINT
 Reset frequeny         DirectResetFreq ....    20
 Integral Threshold     Thresh          ....  2.500e-11 Eh
 Primitive CutOff       TCut            ....  2.500e-12 Eh

Convergence Tolerance:
 Convergence Check Mode ConvCheckMode   .... Total+1el-Energy
 Convergence forced     ConvForced      .... 1
 Energy Change          TolE            ....  1.000e-08 Eh
 1-El. energy change                    ....  1.000e-05 Eh
 Orbital Gradient       TolG            ....  1.000e-05
 Orbital Rotation angle TolX            ....  1.000e-05
 DIIS Error             TolErr          ....  5.000e-07


Diagonalization of the overlap matrix:
Smallest eigenvalue                        ... 2.524e-03
Time for diagonalization                   ...    0.003 sec
Threshold for overlap eigenvalues          ... 1.000e-08
Number of eigenvalues below threshold      ... 0
Time for construction of square roots      ...    0.001 sec
Total time needed                          ...    0.004 sec

-------------------
DFT GRID GENERATION
-------------------

General Integration Accuracy     IntAcc      ...  4.340
Radial Grid Type                 RadialGrid  ... Gauss-Chebyshev
Angular Grid (max. acc.)         AngularGrid ... Lebedev-110
Angular grid pruning method      GridPruning ... 3 (G Style)
Weight generation scheme         WeightScheme... Becke
Basis function cutoff            BFCut       ...    1.0000e-11
Integration weight cutoff        WCut        ...    1.0000e-14
Grids for H and He will be reduced by one unit

# of grid points (after initial pruning)     ...  14866 (   0.0 sec)
# of grid points (after weights+screening)   ...  13927 (   0.0 sec)
nearest neighbour list constructed           ...    0.0 sec
Grid point re-assignment to atoms done       ...    0.0 sec
Grid point division into batches done        ...    0.0 sec
Reduced shell lists constructed in    0.3 sec

Total number of grid points                  ...    13927
Total number of batches                      ...      225
Average number of points per batch           ...       61
Average number of grid points per atom       ...     1071
Average number of shells per batch           ...    49.49 (72.78%)
Average number of basis functions per batch  ...    90.64 (74.30%)
Average number of large shells per batch     ...    39.96 (80.75%)
Average number of large basis fcns per batch ...    73.88 (81.51%)
Maximum spatial batch extension              ...  18.74, 22.13, 19.19 au
Average spatial batch extension              ...   3.70,  3.91,  4.02 au

Time for grid setup =    0.285 sec

------------------------------
INITIAL GUESS: MODEL POTENTIAL
------------------------------
Loading Hartree-Fock densities                     ... done
Calculating cut-offs                               ... done
Setting up the integral package                    ... done
Initializing the effective Hamiltonian             ... done
Starting the Coulomb interaction                   ... done (   0.1 sec)
Reading the grid                                   ... done
Mapping shells                                     ... done
Starting the XC term evaluation                    ... done (   0.2 sec)
Transforming the Hamiltonian                       ... done (   0.0 sec)
Diagonalizing the Hamiltonian                      ... done (   0.0 sec)
Back transforming the eigenvectors                 ... done (   0.0 sec)
Now organizing SCF variables                       ... done
                      ------------------
                      INITIAL GUESS DONE (   0.8 sec)
                      ------------------
--------------
SCF ITERATIONS
--------------
ITER       Energy         Delta-E        Max-DP      RMS-DP      [F,P]     Damp
               ***  Starting incremental Fock matrix formation  ***
  0   -631.9735324971   0.000000000000 0.06290009  0.00167966  0.6497369 0.7000
  1   -632.0713018085  -0.097769311399 0.04610122  0.00127232  0.4563170 0.7000
  2   -632.1295584710  -0.058256662575 0.02476687  0.00079472  0.3204406 0.7000
  3   -632.1662548766  -0.036696405566 0.01159292  0.00048931  0.2251148 0.7000
                               ***Turning on DIIS***
  4   -632.1909440274  -0.024689150847 0.00856396  0.00031932  0.1582005 0.7000
  5   -632.4253136073  -0.234369579805 0.00666914  0.00023929  0.1112034 0.7000
  6   -632.3928133756   0.032500231636 0.01670642  0.00064189  0.0780027 0.0000
                      *** Initiating the SOSCF procedure ***
                           *** Shutting down DIIS ***
                      *** Re-Reading the Fockian *** 
                      *** Removing any level shift *** 
ITER      Energy       Delta-E        Grad      Rot      Max-DP    RMS-DP
  7   -632.25666071   0.1361526663  0.000866  0.000866  0.001569  0.000084
               *** Restarting incremental Fock matrix formation ***
  8   -632.24866755   0.0079931580  0.000350  0.000376  0.001230  0.000049
  9   -632.24867623  -0.0000086833  0.000118  0.000246  0.000639  0.000029
 10   -632.24867769  -0.0000014586  0.000054  0.000040  0.000145  0.000004
 11   -632.24867774  -0.0000000451  0.000021  0.000014  0.000030  0.000001
                 **** Energy Check signals convergence ****
              ***Rediagonalizing the Fockian in SOSCF/NRSCF***

               *****************************************************
               *                     SUCCESS                       *
               *           SCF CONVERGED AFTER  12 CYCLES          *
               *****************************************************


----------------
TOTAL SCF ENERGY
----------------

Total Energy       :         -632.24867775 Eh          -17204.36117 eV

Components:
Nuclear Repulsion  :          236.01297676 Eh            6422.23960 eV
Electronic Energy  :         -868.26165450 Eh          -23626.60077 eV
One Electron Energy:        -1336.98774229 Eh          -36381.28606 eV
Two Electron Energy:          468.72608778 Eh           12754.68528 eV

Virial components:
Potential Energy   :        -1264.50462830 Eh          -34408.92025 eV
Kinetic Energy     :          632.25595055 Eh           17204.55908 eV
Virial Ratio       :            1.99998850


---------------
SCF CONVERGENCE
---------------

  Last Energy change         ...   -7.7850e-09  Tolerance :   1.0000e-08
  Last MAX-Density change    ...    1.2805e-05  Tolerance :   1.0000e-07
  Last RMS-Density change    ...    6.3124e-07  Tolerance :   5.0000e-09
  Last Orbital Gradient      ...    5.1980e-06  Tolerance :   1.0000e-05
  Last Orbital Rotation      ...    1.1377e-05  Tolerance :   1.0000e-05

             **** THE GBW FILE WAS UPDATED (run.gbw) ****
             **** DENSITY FILE WAS UPDATED (run.scfp.tmp) ****
             **** ENERGY FILE WAS UPDATED (run.en.tmp) ****
----------------
ORBITAL ENERGIES
----------------

  NO   OCC          E(Eh)            E(eV) 
   0   2.0000    -104.820175     -2852.3020 
   1   2.0000     -15.540605      -422.8814 
   2   2.0000     -11.300835      -307.5113 
   3   2.0000     -11.264739      -306.5291 
   4   2.0000     -11.236790      -305.7686 
   5   2.0000     -10.547366      -287.0084 
   6   2.0000      -8.015469      -218.1120 
   7   2.0000      -8.012822      -218.0400 
   8   2.0000      -8.012751      -218.0380 
   9   2.0000      -1.201561       -32.6961 
  10   2.0000      -1.134446       -30.8698 
  11   2.0000      -1.015832       -27.6422 
  12   2.0000      -0.920897       -25.0589 
  13   2.0000      -0.806583       -21.9482 
  14   2.0000      -0.690819       -18.7981 
  15   2.0000      -0.643567       -17.5124 
  16   2.0000      -0.620227       -16.8772 
  17   2.0000      -0.597424       -16.2567 
  18   2.0000      -0.549498       -14.9526 
  19   2.0000      -0.540719       -14.7137 
  20   2.0000      -0.526277       -14.3207 
  21   2.0000      -0.495455       -13.4820 
  22   2.0000      -0.441413       -12.0115 
  23   2.0000      -0.435291       -11.8449 
  24   2.0000      -0.396220       -10.7817 
  25   0.0000       0.145750         3.9661 
  26   0.0000       0.166608         4.5336 
  27   0.0000       0.175933         4.7874 
  28   0.0000       0.188183         5.1207 
  29   0.0000       0.202631         5.5139 
  30   0.0000       0.232231         6.3193 
  31   0.0000       0.236715         6.4414 
  32   0.0000       0.240146         6.5347 
  33   0.0000       0.275061         7.4848 
  34   0.0000       0.342327         9.3152 
  35   0.0000       0.367326         9.9954 
  36   0.0000       0.369571        10.0565 
  37   0.0000       0.428785        11.6678 
  38   0.0000       0.447480        12.1765 
  39   0.0000       0.462456        12.5841 
  40   0.0000       0.486239        13.2312 
  41   0.0000       0.504338        13.7237 
  42   0.0000       0.528026        14.3683 
  43   0.0000       0.535787        14.5795 
  44   0.0000       0.563997        15.3471 
  45   0.0000       0.567821        15.4512 
  46   0.0000       0.577753        15.7215 
  47   0.0000       0.695650        18.9296 
  48   0.0000       0.743838        20.2409 
  49   0.0000       0.756984        20.5986 
  50   0.0000       0.781691        21.2709 
  51   0.0000       0.783441        21.3185 
  52   0.0000       0.794237        21.6123 
  53   0.0000       0.803511        21.8646 
  54   0.0000       0.807439        21.9715 
  55   0.0000       0.817589        22.2477 
  56   0.0000       0.835439        22.7334 
  57   0.0000       0.914503        24.8849 
  58   0.0000       0.937543        25.5118 
  59   0.0000       0.998278        27.1645 
  60   0.0000       1.017175        27.6787 
  61   0.0000       1.079698        29.3801 
  62   0.0000       1.086857        29.5749 
  63   0.0000       1.120281        30.4844 
  64   0.0000       1.190332        32.3906 
  65   0.0000       1.214409        33.0457 
  66   0.0000       1.277506        34.7627 
  67   0.0000       1.294896        35.2359 
  68   0.0000       1.349615        36.7249 
  69   0.0000       1.417968        38.5849 
  70   0.0000       1.504316        40.9345 
  71   0.0000       1.526297        41.5327 
  72   0.0000       1.632208        44.4146 
  73   0.0000       1.717086        46.7243 
  74   0.0000       1.752063        47.6761 
  75   0.0000       1.762687        47.9652 
  76   0.0000       1.816229        49.4221 
  77   0.0000       1.850774        50.3621 
  78   0.0000       1.884706        51.2855 
  79   0.0000       1.932414        52.5837 
  80   0.0000       2.032812        55.3156 
  81   0.0000       2.123217        57.7757 
  82   0.0000       2.154848        58.6364 
  83   0.0000       2.216956        60.3264 
  84   0.0000       2.246848        61.1399 
  85   0.0000       2.314268        62.9744 
  86   0.0000       2.367102        64.4121 
  87   0.0000       2.466933        67.1287 
  88   0.0000       2.532717        68.9187 
  89   0.0000       2.544307        69.2341 
  90   0.0000       2.591762        70.5254 
  91   0.0000       2.655748        72.2666 
  92   0.0000       2.695272        73.3421 
  93   0.0000       2.750702        74.8504 
  94   0.0000       2.776111        75.5418 
  95   0.0000       2.827928        76.9518 
  96   0.0000       2.831710        77.0547 
  97   0.0000       2.900673        78.9313 
  98   0.0000       2.956970        80.4633 
  99   0.0000       3.093540        84.1795 
 100   0.0000       3.238996        88.1376 
 101   0.0000       3.290225        89.5316 
 102   0.0000       3.405715        92.6742 
 103   0.0000       3.486943        94.8845 
 104   0.0000       3.531691        96.1022 
 105   0.0000       3.596133        97.8557 
 106   0.0000       3.658457        99.5517 
 107   0.0000       3.696103       100.5761 
 108   0.0000       4.017096       109.3107 
 109   0.0000       4.324153       117.6662 
 110   0.0000       4.369119       118.8898 
 111   0.0000       4.546207       123.7086 
 112   0.0000       5.038270       137.0983 
 113   0.0000      10.287984       279.9503 
 114   0.0000      24.526056       667.3879 
 115   0.0000      24.763122       673.8388 
 116   0.0000      24.830238       675.6651 
 117   0.0000      26.375271       717.7076 
 118   0.0000      26.477678       720.4943 
 119   0.0000      26.941103       733.1047 
 120   0.0000      36.831396      1002.2332 
 121   0.0000     219.115168      5962.4268 

                    ********************************
                    * MULLIKEN POPULATION ANALYSIS *
                    ********************************

-----------------------
MULLIKEN ATOMIC CHARGES
-----------------------
   0 C :   -0.284885
   1 C :   -0.191318
   2 Cl:   -0.155636
   3 H :    0.213131
   4 H :    0.237578
   5 H :    0.224698
   6 C :   -0.585657
   7 H :    0.238175
   8 H :    0.227084
   9 H :    0.214361
  10 N :   -0.808196
  11 H :    0.321283
  12 H :    0.349382
Sum of atomic charges:   -0.0000000

--------------------------------
MULLIKEN REDUCED ORBITAL CHARGES
--------------------------------
  0 C s       :     3.334509  s :     3.334509
      pz      :     0.968025  p :     2.850171
      px      :     0.810239
      py      :     1.071907
      dz2     :     0.024913  d :     0.100205
      dxz     :     0.016570
      dyz     :     0.015345
      dx2y2   :     0.018344
      dxy     :     0.025032
  1 C s       :     3.232624  s :     3.232624
      pz      :     0.819581  p :     2.854896
      px      :     1.135293
      py      :     0.900022
      dz2     :     0.032916  d :     0.103797
      dxz     :     0.009563
      dyz     :     0.021477
      dx2y2   :     0.016952
      dxy     :     0.022890
  2 Cls       :     5.966184  s :     5.966184
      pz      :     3.890815  p :    11.163450
      px      :     3.349645
      py      :     3.922991
      dz2     :     0.003349  d :     0.026001
      dxz     :     0.007202
      dyz     :     0.000925
      dx2y2   :     0.009354
      dxy     :     0.005172
  3 H s       :     0.786869  s :     0.786869
  4 H s       :     0.762422  s :     0.762422
  5 H s       :     0.775302  s :     0.775302
  6 C s       :     3.349003  s :     3.349003
      pz      :     1.107814  p :     3.166112
      px      :     1.093912
      py      :     0.964386
      dz2     :     0.023636  d :     0.070542
      dxz     :     0.006433
      dyz     :     0.009289
      dx2y2   :     0.014424
      dxy     :     0.016761
  7 H s       :     0.761825  s :     0.761825
  8 H s       :     0.772916  s :     0.772916
  9 H s       :     0.785639  s :     0.785639
 10 N s       :     3.681083  s :     3.681083
      pz      :     1.783944  p :     4.091004
      px      :     1.183770
      py      :     1.123290
      dz2     :     0.003702  d :     0.036109
      dxz     :     0.005924
      dyz     :     0.008544
      dx2y2   :     0.005985
      dxy     :     0.011954
 11 H s       :     0.678717  s :     0.678717
 12 H s       :     0.650618  s :     0.650618


                     *******************************
                     * LOEWDIN POPULATION ANALYSIS *
                     *******************************

----------------------
LOEWDIN ATOMIC CHARGES
----------------------
   0 C :   -0.212339
   1 C :   -0.169835
   2 Cl:    0.014144
   3 H :    0.100141
   4 H :    0.101040
   5 H :    0.102565
   6 C :   -0.280600
   7 H :    0.111341
   8 H :    0.109754
   9 H :    0.106463
  10 N :   -0.367465
  11 H :    0.189853
  12 H :    0.194938

-------------------------------
LOEWDIN REDUCED ORBITAL CHARGES
-------------------------------
  0 C s       :     2.890758  s :     2.890758
      pz      :     1.093441  p :     3.128797
      px      :     0.929715
      py      :     1.105641
      dz2     :     0.049561  d :     0.192784
      dxz     :     0.033478
      dyz     :     0.029750
      dx2y2   :     0.036442
      dxy     :     0.043553
  1 C s       :     2.850429  s :     2.850429
      pz      :     1.018271  p :     3.125472
      px      :     1.096023
      py      :     1.011178
      dz2     :     0.066222  d :     0.193934
      dxz     :     0.017548
      dyz     :     0.045571
      dx2y2   :     0.028899
      dxy     :     0.035693
  2 Cls       :     5.735444  s :     5.735444
      pz      :     3.876556  p :    11.221915
      px      :     3.430105
      py      :     3.915255
      dz2     :     0.003734  d :     0.028497
      dxz     :     0.007941
      dyz     :     0.001058
      dx2y2   :     0.010065
      dxy     :     0.005698
  3 H s       :     0.899859  s :     0.899859
  4 H s       :     0.898960  s :     0.898960
  5 H s       :     0.897435  s :     0.897435
  6 C s       :     2.892317  s :     2.892317
      pz      :     1.101360  p :     3.277843
      px      :     1.104047
      py      :     1.072436
      dz2     :     0.033768  d :     0.110440
      dxz     :     0.008538
      dyz     :     0.017822
      dx2y2   :     0.023723
      dxy     :     0.026588
  7 H s       :     0.888659  s :     0.888659
  8 H s       :     0.890246  s :     0.890246
  9 H s       :     0.893537  s :     0.893537
 10 N s       :     3.198662  s :     3.198662
      pz      :     1.740720  p :     4.118096
      px      :     1.191019
      py      :     1.186357
      dz2     :     0.004788  d :     0.050706
      dxz     :     0.006200
      dyz     :     0.012533
      dx2y2   :     0.009890
      dxy     :     0.017294
 11 H s       :     0.810147  s :     0.810147
 12 H s       :     0.805062  s :     0.805062


                      *****************************
                      * MAYER POPULATION ANALYSIS *
                      *****************************

  NA   - Mulliken gross atomic population
  ZA   - Total nuclear charge
  QA   - Mulliken gross atomic charge
  VA   - Mayer's total valence
  BVA  - Mayer's bonded valence
  FA   - Mayer's free valence

  ATOM       NA         ZA         QA         VA         BVA        FA
  0 C      6.2849     6.0000    -0.2849     3.6465     3.6465     0.0000
  1 C      6.1913     6.0000    -0.1913     3.6183     3.6183     0.0000
  2 Cl    17.1556    17.0000    -0.1556     0.9142     0.9142    -0.0000
  3 H      0.7869     1.0000     0.2131     0.9119     0.9119    -0.0000
  4 H      0.7624     1.0000     0.2376     0.8835     0.8835    -0.0000
  5 H      0.7753     1.0000     0.2247     0.9064     0.9064    -0.0000
  6 C      6.5857     6.0000    -0.5857     3.6371     3.6371    -0.0000
  7 H      0.7618     1.0000     0.2382     0.9001     0.9001     0.0000
  8 H      0.7729     1.0000     0.2271     0.9064     0.9064    -0.0000
  9 H      0.7856     1.0000     0.2144     0.9113     0.9113    -0.0000
 10 N      7.8082     7.0000    -0.8082     2.6218     2.6218     0.0000
 11 H      0.6787     1.0000     0.3213     0.8605     0.8605    -0.0000
 12 H      0.6506     1.0000     0.3494     0.8406     0.8406    -0.0000

  Mayer bond orders larger than 0.1
B(  0-C ,  1-C ) :   0.9098 B(  0-C ,  2-Cl) :   0.9873 B(  0-C ,  4-H ) :   0.9191 
B(  0-C ,  6-C ) :   0.9278 B(  1-C ,  3-H ) :   0.9399 B(  1-C ,  5-H ) :   0.9366 
B(  1-C , 10-N ) :   0.9389 B(  6-C ,  7-H ) :   0.9419 B(  6-C ,  8-H ) :   0.9365 
B(  6-C ,  9-H ) :   0.9356 B( 10-N , 11-H ) :   0.8616 B( 10-N , 12-H ) :   0.8472 


-------
TIMINGS
-------

Total SCF time: 0 days 0 hours 0 min 31 sec 

Total time                  ....      31.549 sec
Sum of individual times     ....      31.527 sec  ( 99.9%)

Fock matrix formation       ....      30.696 sec  ( 97.3%)
Diagonalization             ....       0.030 sec  (  0.1%)
Density matrix formation    ....       0.002 sec  (  0.0%)
Population analysis         ....       0.005 sec  (  0.0%)
Initial guess               ....       0.493 sec  (  1.6%)
Orbital Transformation      ....       0.000 sec  (  0.0%)
Orbital Orthonormalization  ....       0.000 sec  (  0.0%)
DIIS solution               ....       0.007 sec  (  0.0%)
SOSCF solution              ....       0.010 sec  (  0.0%)

------------------------------------------------------------------------------
                                ORCA  MP2 
------------------------------------------------------------------------------

MP2 will be done in the AO integral direct mode
The Q1-step will be done using symmetric double matrices
Dimension of the basis                    ...  122
Memory devoted for MP2                    ... 5000 MB   
Memory needed for all in one shot         ...  176 MB
Number of MOs that can be treated together...  714      
MP2 density construction                  ... relaxed
The MP2 gradient is requested => amplitudes will be stored on disk
Total number of MOs              ...   25
Number of MOs treated per batch  ...   25 
Number of batches necessary      ...    1 
OPERATORS   0/  0 PASS   0
-----------------------------------------------
 MP2 CORRELATION ENERGY   :     -0.855080394 Eh
-----------------------------------------------


---------------------
MP2 DENSITY FORMATION
---------------------

Completing the external part of the density      ... done
Storing the unrelaxed density                    ... done

Calculating G(D)                                 ... done
Completing the Lagrangian                        ... done
Solving the Z-vector equations                   ... 

------------------------------------------------------------------------------
                           ORCA CP-SCF CALCULATION
------------------------------------------------------------------------------

Input orbitals are from        ... run.gbw
Input Perturbation             ... run.pin.tmp
Wavefunction output            ... run.pout.tmp
Perturbation mode              ... Real perturbation
Solver                         ... POPLE
Max. number of iterations      ... 128
Convergence tolerance          ... 1.000e-08
Integral handling              ... Direct
Number of perturbations        ... 1
Number of operators            ... 1
Orbital ranges used for CP-SCF:
 Operator 0:  Orbitals   0... 24  to  25...121
Variables per vector in CP-SCF ... 2425
Number of vectors sought       ... 1
     CP-SCF ITERATION   0: 
     CP-SCF ITERATION   1:      0.000292945877
     CP-SCF ITERATION   2:      0.000029110216
     CP-SCF ITERATION   3:      0.000002533714
     CP-SCF ITERATION   4:      0.000000260845
     CP-SCF ITERATION   5:      0.000000022897
     CP-SCF ITERATION   6:      0.000000001949
                                                 ... done
Finalizing the relaxed density                   ... done
Transforming P to the AO basis                   ... done
Storing the relaxed density                      ... done

------------------------------------
ENERGY WEIGHTED DENSITY FINALIZATION
------------------------------------

Gathering the parts of the W-matrix              ...                                                      done
Forming the Z-density                            ... done
Transforming Z to the AO basis                   ... done
Calculating G(Z)                                 ... done
Finalizing the W-matrix                          ...                                                      done
Transforming W to the AO basis and storing       ... done

                *********************************************
                * UNRELAXED MP2 DENSITY POPULATION ANALYSIS *
                *********************************************

------------------------------------------------------------------------------
                           ORCA POPULATION ANALYSIS
------------------------------------------------------------------------------
Input electron density              ... run.pmp2ur
BaseName (.gbw .S,...)              ... run

                    ********************************
                    * MULLIKEN POPULATION ANALYSIS *
                    ********************************

-----------------------
MULLIKEN ATOMIC CHARGES
-----------------------
   0 C :   -0.297078
   1 C :   -0.202075
   2 Cl:   -0.144250
   3 H :    0.215518
   4 H :    0.239432
   5 H :    0.227022
   6 C :   -0.593317
   7 H :    0.240524
   8 H :    0.229423
   9 H :    0.216807
  10 N :   -0.801927
  11 H :    0.321176
  12 H :    0.348745
Sum of atomic charges:   -0.0000000

--------------------------------
MULLIKEN REDUCED ORBITAL CHARGES
--------------------------------
  0 C s       :     3.329554  s :     3.329554
      pz      :     0.965091  p :     2.847671
      px      :     0.813517
      py      :     1.069063
      dz2     :     0.028441  d :     0.119853
      dxz     :     0.020807
      dyz     :     0.019728
      dx2y2   :     0.022111
      dxy     :     0.028766
  1 C s       :     3.229920  s :     3.229920
      pz      :     0.818301  p :     2.849847
      px      :     1.132381
      py      :     0.899164
      dz2     :     0.035924  d :     0.122309
      dxz     :     0.013924
      dyz     :     0.025260
      dx2y2   :     0.020667
      dxy     :     0.026534
  2 Cls       :     5.958605  s :     5.958605
      pz      :     3.870624  p :    11.108586
      px      :     3.335301
      py      :     3.902662
      dz2     :     0.013747  d :     0.077059
      dxz     :     0.017235
      dyz     :     0.011517
      dx2y2   :     0.019198
      dxy     :     0.015361
  3 H s       :     0.784482  s :     0.784482
  4 H s       :     0.760568  s :     0.760568
  5 H s       :     0.772978  s :     0.772978
  6 C s       :     3.345880  s :     3.345880
      pz      :     1.104322  p :     3.156980
      px      :     1.091275
      py      :     0.961384
      dz2     :     0.027375  d :     0.090456
      dxz     :     0.010731
      dyz     :     0.013360
      dx2y2   :     0.018319
      dxy     :     0.020671
  7 H s       :     0.759476  s :     0.759476
  8 H s       :     0.770577  s :     0.770577
  9 H s       :     0.783193  s :     0.783193
 10 N s       :     3.676730  s :     3.676730
      pz      :     1.770931  p :     4.069439
      px      :     1.179934
      py      :     1.118574
      dz2     :     0.008047  d :     0.055758
      dxz     :     0.010008
      dyz     :     0.012447
      dx2y2   :     0.009682
      dxy     :     0.015575
 11 H s       :     0.678824  s :     0.678824
 12 H s       :     0.651255  s :     0.651255


                     *******************************
                     * LOEWDIN POPULATION ANALYSIS *
                     *******************************

----------------------
LOEWDIN ATOMIC CHARGES
----------------------
   0 C :   -0.226286
   1 C :   -0.181860
   2 Cl:    0.024161
   3 H :    0.104209
   4 H :    0.104972
   5 H :    0.106553
   6 C :   -0.292367
   7 H :    0.115191
   8 H :    0.113591
   9 H :    0.110377
  10 N :   -0.366211
  11 H :    0.191455
  12 H :    0.196215

-------------------------------
LOEWDIN REDUCED ORBITAL CHARGES
-------------------------------
  0 C s       :     2.891326  s :     2.891326
      pz      :     1.087394  p :     3.119703
      px      :     0.931468
      py      :     1.100842
      dz2     :     0.054248  d :     0.215256
      dxz     :     0.037805
      dyz     :     0.034564
      dx2y2   :     0.040773
      dxy     :     0.047867
  1 C s       :     2.851591  s :     2.851591
      pz      :     1.013471  p :     3.115296
      px      :     1.093108
      py      :     1.008718
      dz2     :     0.069992  d :     0.214973
      dxz     :     0.022207
      dyz     :     0.049667
      dx2y2   :     0.033264
      dxy     :     0.039842
  2 Cls       :     5.728635  s :     5.728635
      pz      :     3.856343  p :    11.165762
      px      :     3.414512
      py      :     3.894907
      dz2     :     0.014434  d :     0.081442
      dxz     :     0.018444
      dyz     :     0.011818
      dx2y2   :     0.020467
      dxy     :     0.016279
  3 H s       :     0.895791  s :     0.895791
  4 H s       :     0.895028  s :     0.895028
  5 H s       :     0.893447  s :     0.893447
  6 C s       :     2.893040  s :     2.893040
      pz      :     1.097697  p :     3.266006
      px      :     1.100930
      py      :     1.067379
      dz2     :     0.038112  d :     0.133321
      dxz     :     0.013309
      dyz     :     0.022536
      dx2y2   :     0.028270
      dxy     :     0.031094
  7 H s       :     0.884809  s :     0.884809
  8 H s       :     0.886409  s :     0.886409
  9 H s       :     0.889623  s :     0.889623
 10 N s       :     3.197352  s :     3.197352
      pz      :     1.728029  p :     4.096561
      px      :     1.187702
      py      :     1.180830
      dz2     :     0.009370  d :     0.072299
      dxz     :     0.010577
      dyz     :     0.017079
      dx2y2   :     0.014008
      dxy     :     0.021265
 11 H s       :     0.808545  s :     0.808545
 12 H s       :     0.803785  s :     0.803785


                      *****************************
                      * MAYER POPULATION ANALYSIS *
                      *****************************

  NA   - Mulliken gross atomic population
  ZA   - Total nuclear charge
  QA   - Mulliken gross atomic charge
  VA   - Mayer's total valence
  BVA  - Mayer's bonded valence
  FA   - Mayer's free valence

  ATOM       NA         ZA         QA         VA         BVA        FA
  0 C      6.2971     6.0000    -0.2971     3.7598     3.4327     0.3271
  1 C      6.2021     6.0000    -0.2021     3.7197     3.4371     0.2825
  2 Cl    17.1442    17.0000    -0.1442     1.2519     0.8421     0.4098
  3 H      0.7845     1.0000     0.2155     0.9133     0.8742     0.0391
  4 H      0.7606     1.0000     0.2394     0.8853     0.8451     0.0402
  5 H      0.7730     1.0000     0.2270     0.9078     0.8696     0.0382
  6 C      6.5933     6.0000    -0.5933     3.7550     3.4781     0.2769
  7 H      0.7595     1.0000     0.2405     0.9011     0.8643     0.0368
  8 H      0.7706     1.0000     0.2294     0.9078     0.8704     0.0374
  9 H      0.7832     1.0000     0.2168     0.9126     0.8743     0.0383
 10 N      7.8019     7.0000    -0.8019     2.8262     2.4936     0.3327
 11 H      0.6788     1.0000     0.3212     0.8623     0.8231     0.0392
 12 H      0.6513     1.0000     0.3487     0.8428     0.8045     0.0384

  Mayer bond orders larger than 0.1
B(  0-C ,  1-C ) :   0.8575 B(  0-C ,  2-Cl) :   0.9170 B(  0-C ,  4-H ) :   0.8818 
B(  0-C ,  6-C ) :   0.8755 B(  1-C ,  3-H ) :   0.9034 B(  1-C ,  5-H ) :   0.9004 
B(  1-C , 10-N ) :   0.8839 B(  6-C ,  7-H ) :   0.9064 B(  6-C ,  8-H ) :   0.9009 
B(  6-C ,  9-H ) :   0.8997 B( 10-N , 11-H ) :   0.8254 B( 10-N , 12-H ) :   0.8120 



                *******************************************
                * RELAXED MP2 DENSITY POPULATION ANALYSIS *
                *******************************************

------------------------------------------------------------------------------
                           ORCA POPULATION ANALYSIS
------------------------------------------------------------------------------
Input electron density              ... run.pmp2re
BaseName (.gbw .S,...)              ... run

                    ********************************
                    * MULLIKEN POPULATION ANALYSIS *
                    ********************************

-----------------------
MULLIKEN ATOMIC CHARGES
-----------------------
   0 C :   -0.328433
   1 C :   -0.267104
   2 Cl:   -0.097190
   3 H :    0.225282
   4 H :    0.242472
   5 H :    0.235482
   6 C :   -0.633483
   7 H :    0.248293
   8 H :    0.239012
   9 H :    0.227489
  10 N :   -0.750495
  11 H :    0.318371
  12 H :    0.340303
Sum of atomic charges:   -0.0000000

--------------------------------
MULLIKEN REDUCED ORBITAL CHARGES
--------------------------------
  0 C s       :     3.315131  s :     3.315131
      pz      :     0.977887  p :     2.903003
      px      :     0.842996
      py      :     1.082120
      dz2     :     0.025147  d :     0.110299
      dxz     :     0.020169
      dyz     :     0.018761
      dx2y2   :     0.019959
      dxy     :     0.026263
  1 C s       :     3.232919  s :     3.232919
      pz      :     0.846753  p :     2.924041
      px      :     1.154773
      py      :     0.922516
      dz2     :     0.031644  d :     0.110144
      dxz     :     0.013581
      dyz     :     0.023621
      dx2y2   :     0.017957
      dxy     :     0.023341
  2 Cls       :     5.957561  s :     5.957561
      pz      :     3.857467  p :    11.065219
      px      :     3.314790
      py      :     3.892962
      dz2     :     0.013499  d :     0.074410
      dxz     :     0.016546
      dyz     :     0.011544
      dx2y2   :     0.017606
      dxy     :     0.015216
  3 H s       :     0.774718  s :     0.774718
  4 H s       :     0.757528  s :     0.757528
  5 H s       :     0.764518  s :     0.764518
  6 C s       :     3.336928  s :     3.336928
      pz      :     1.120768  p :     3.217850
      px      :     1.114084
      py      :     0.982998
      dz2     :     0.023506  d :     0.078705
      dxz     :     0.009549
      dyz     :     0.011801
      dx2y2   :     0.015830
      dxy     :     0.018019
  7 H s       :     0.751707  s :     0.751707
  8 H s       :     0.760988  s :     0.760988
  9 H s       :     0.772511  s :     0.772511
 10 N s       :     3.649283  s :     3.649283
      pz      :     1.756917  p :     4.049210
      px      :     1.176724
      py      :     1.115568
      dz2     :     0.008144  d :     0.052002
      dxz     :     0.009535
      dyz     :     0.011532
      dx2y2   :     0.008689
      dxy     :     0.014102
 11 H s       :     0.681629  s :     0.681629
 12 H s       :     0.659697  s :     0.659697


                     *******************************
                     * LOEWDIN POPULATION ANALYSIS *
                     *******************************

----------------------
LOEWDIN ATOMIC CHARGES
----------------------
   0 C :   -0.252806
   1 C :   -0.213290
   2 Cl:    0.052100
   3 H :    0.114362
   4 H :    0.110192
   5 H :    0.115123
   6 C :   -0.326213
   7 H :    0.123918
   8 H :    0.122657
   9 H :    0.120963
  10 N :   -0.360820
  11 H :    0.195715
  12 H :    0.198100

-------------------------------
LOEWDIN REDUCED ORBITAL CHARGES
-------------------------------
  0 C s       :     2.895938  s :     2.895938
      pz      :     1.089472  p :     3.148542
      px      :     0.954076
      py      :     1.104994
      dz2     :     0.051999  d :     0.208326
      dxz     :     0.037321
      dyz     :     0.034163
      dx2y2   :     0.038838
      dxy     :     0.046005
  1 C s       :     2.856814  s :     2.856814
      pz      :     1.025005  p :     3.152006
      px      :     1.107405
      py      :     1.019596
      dz2     :     0.066731  d :     0.204470
      dxz     :     0.022088
      dyz     :     0.048233
      dx2y2   :     0.030625
      dxy     :     0.036793
  2 Cls       :     5.734756  s :     5.734756
      pz      :     3.848396  p :    11.133819
      px      :     3.395418
      py      :     3.890004
      dz2     :     0.014218  d :     0.079325
      dxz     :     0.017924
      dyz     :     0.011863
      dx2y2   :     0.019107
      dxy     :     0.016213
  3 H s       :     0.885638  s :     0.885638
  4 H s       :     0.889808  s :     0.889808
  5 H s       :     0.884877  s :     0.884877
  6 C s       :     2.896643  s :     2.896643
      pz      :     1.110598  p :     3.307566
      px      :     1.116664
      py      :     1.080304
      dz2     :     0.034446  d :     0.122004
      dxz     :     0.012242
      dyz     :     0.021079
      dx2y2   :     0.025731
      dxy     :     0.028508
  7 H s       :     0.876082  s :     0.876082
  8 H s       :     0.877343  s :     0.877343
  9 H s       :     0.879037  s :     0.879037
 10 N s       :     3.195737  s :     3.195737
      pz      :     1.717811  p :     4.095896
      px      :     1.194034
      py      :     1.184051
      dz2     :     0.009457  d :     0.069188
      dxz     :     0.010249
      dyz     :     0.016303
      dx2y2   :     0.013159
      dxy     :     0.020018
 11 H s       :     0.804285  s :     0.804285
 12 H s       :     0.801900  s :     0.801900


                      *****************************
                      * MAYER POPULATION ANALYSIS *
                      *****************************

  NA   - Mulliken gross atomic population
  ZA   - Total nuclear charge
  QA   - Mulliken gross atomic charge
  VA   - Mayer's total valence
  BVA  - Mayer's bonded valence
  FA   - Mayer's free valence

  ATOM       NA         ZA         QA         VA         BVA        FA
  0 C      6.3284     6.0000    -0.3284     3.8314     3.5102     0.3212
  1 C      6.2671     6.0000    -0.2671     3.7765     3.4973     0.2792
  2 Cl    17.0972    17.0000    -0.0972     1.3114     0.9067     0.4047
  3 H      0.7747     1.0000     0.2253     0.9092     0.8709     0.0384
  4 H      0.7575     1.0000     0.2425     0.8868     0.8475     0.0393
  5 H      0.7645     1.0000     0.2355     0.9051     0.8677     0.0374
  6 C      6.6335     6.0000    -0.6335     3.7643     3.4907     0.2736
  7 H      0.7517     1.0000     0.2483     0.8975     0.8614     0.0362
  8 H      0.7610     1.0000     0.2390     0.9047     0.8681     0.0366
  9 H      0.7725     1.0000     0.2275     0.9086     0.8711     0.0375
 10 N      7.7505     7.0000    -0.7505     2.9001     2.5724     0.3277
 11 H      0.6816     1.0000     0.3184     0.8625     0.8235     0.0389
 12 H      0.6597     1.0000     0.3403     0.8490     0.8109     0.0381

  Mayer bond orders larger than 0.1
B(  0-C ,  1-C ) :   0.8725 B(  0-C ,  2-Cl) :   0.9483 B(  0-C ,  4-H ) :   0.8749 
B(  0-C ,  6-C ) :   0.8937 B(  1-C ,  3-H ) :   0.8911 B(  1-C ,  5-H ) :   0.8901 
B(  1-C , 10-N ) :   0.9365 B(  6-C ,  7-H ) :   0.8982 B(  6-C ,  8-H ) :   0.8943 
B(  6-C ,  9-H ) :   0.8913 B( 10-N , 11-H ) :   0.8250 B( 10-N , 12-H ) :   0.8135 



----------------------------------
MP2 DERIVATIVE INTEGRAL GENERATION
----------------------------------


Input Wavefunction Amplitudes       ... run.mp2tsaa.tmp.proc0
Input Correlated Electron Density   ... run.pmp2re
Input Energy Weighted Density       ... run.wmp2.tmp
Input SCF Electron Density          ... run.scfp.tmp

One-Electron Terms    ...
                        ... One-Electron Terms done
Prescreening matrices              ... done

Batch handling in the gradient evaluation:
Memory available                      ... 5000.0 MB
Memory per occupied orbital in Q2     ...    2.8 MB
Memory per occupied orbital in Q3     ...    0.0 MB
Total memory requirement per |i>      ...    2.9 MB
Max. Number of orbitals possible      ...   1746
Number of orbitals treated per batch  ...     25
Number of batches to be done          ...      1
Batch   0: i=    0 ...    24

---------------------------------------
MP2 TOTAL ENERGY:     -633.103758140 Eh
---------------------------------------

The final MP2 gradient
  0:  -0.00005672   0.00002758   0.00000696
  1:   0.00008026   0.00009070   0.00014811
  2:   0.00002949  -0.00001336  -0.00000094
  3:  -0.00003057   0.00000505  -0.00004897
  4:  -0.00002376  -0.00002213   0.00000992
  5:  -0.00001891  -0.00003104  -0.00003772
  6:   0.00001468  -0.00001615  -0.00002238
  7:  -0.00000150  -0.00001867  -0.00000024
  8:   0.00000953   0.00000527  -0.00000772
  9:  -0.00000553   0.00002286   0.00001172
 10:   0.00004341  -0.00000390  -0.00012829
 11:  -0.00004048  -0.00004446   0.00001299
 12:   0.00000010  -0.00000176   0.00005657

-----------------------------------
NORM OF THE MP2 GRADIENT:  0.000277
-----------------------------------

-------------------------   --------------------
FINAL SINGLE POINT ENERGY      -633.103758140260
-------------------------   --------------------


                            ***************************************
                            *     ORCA property calculations      *
                            ***************************************

                                    ---------------------
                                    Active property flags
                                    ---------------------
   (+) Dipole Moment


------------------------------------------------------------------------------
                       ORCA ELECTRIC PROPERTIES CALCULATION
------------------------------------------------------------------------------

Dipole Moment Calculation                       ... on
Quadrupole Moment Calculation                   ... off
Polarizability Calculation                      ... off
GBWName                                         ... run.gbw
Electron density file                           ... run.scfp.tmp
The origin for moment calculation is the CENTER OF MASS  = ( 0.764053,  0.047052  0.032350)

-------------
DIPOLE MOMENT
-------------
                                X             Y             Z
Electronic contribution:      6.57544       3.15803      -3.94379
Nuclear contribution   :     -7.41279      -3.28613       3.73762
                        -----------------------------------------
Total Dipole Moment    :     -0.83735      -0.12810      -0.20617
                        -----------------------------------------
Magnitude (a.u.)       :      0.87182
Magnitude (Debye)      :      2.21599


                         *** MP2 UNRELAXED DENSITY ***

------------------------------------------------------------------------------
                       ORCA ELECTRIC PROPERTIES CALCULATION
------------------------------------------------------------------------------

Dipole Moment Calculation                       ... on
Quadrupole Moment Calculation                   ... off
Polarizability Calculation                      ... off
GBWName                                         ... run.gbw
Electron density file                           ... run.pmp2ur
The origin for moment calculation is the CENTER OF MASS  = ( 0.764053,  0.047052  0.032350)

-------------
DIPOLE MOMENT
-------------
                                X             Y             Z
Electronic contribution:      6.59408       3.16564      -3.94393
Nuclear contribution   :     -7.41279      -3.28613       3.73762
                        -----------------------------------------
Total Dipole Moment    :     -0.81870      -0.12049      -0.20631
                        -----------------------------------------
Magnitude (a.u.)       :      0.85285
Magnitude (Debye)      :      2.16778


                           *** MP2 RELAXED DENSITY ***

------------------------------------------------------------------------------
                       ORCA ELECTRIC PROPERTIES CALCULATION
------------------------------------------------------------------------------

Dipole Moment Calculation                       ... on
Quadrupole Moment Calculation                   ... off
Polarizability Calculation                      ... off
GBWName                                         ... run.gbw
Electron density file                           ... run.pmp2re
The origin for moment calculation is the CENTER OF MASS  = ( 0.764053,  0.047052  0.032350)

-------------
DIPOLE MOMENT
-------------
                                X             Y             Z
Electronic contribution:      6.68074       3.20698      -3.96039
Nuclear contribution   :     -7.41279      -3.28613       3.73762
                        -----------------------------------------
Total Dipole Moment    :     -0.73204      -0.07916      -0.22277
                        -----------------------------------------
Magnitude (a.u.)       :      0.76927
Magnitude (Debye)      :      1.95534


----------------------------------------------------------------------------
                           ORCA NUMERICAL FREQUENCIES
----------------------------------------------------------------------------

Number of atoms                ... 13
Central differences            ... used
Number of displacements        ... 78
Numerical increment            ...  0.005 bohr
IR-spectrum generation         ... on
Raman-spectrum generation      ... off
Surface Crossing Hessian       ... off

                    <<<RESTART CALCULATION>>>
 Will try to read the Hessian file and continue where the previous
 run stopped. The .hess file must have the same name as before!

     ....    checking local Hessian files ...  

!!! No Restart Hessian found - Restarting from scratch !!! 

The output will be reduced. Please look at the following files:
SCF program output             ... >run.lastscf
Integral program output        ... >run.lastint
Gradient program output        ... >run.lastgrad
Dipole moment program output   ... >run.lastmom


         <<<Energy and Gradient at the input geometry>>>
             <<<Displacing   1/coordinate 1 (+)>>>
             <<<Displacing   1/coordinate 1 (-)>>>
             <<<Displacing   1/coordinate 2 (+)>>>
             <<<Displacing   1/coordinate 2 (-)>>>
             <<<Displacing   1/coordinate 3 (+)>>>
             <<<Displacing   1/coordinate 3 (-)>>>
             <<<Displacing   2/coordinate 1 (+)>>>
             <<<Displacing   2/coordinate 1 (-)>>>
             <<<Displacing   2/coordinate 2 (+)>>>
             <<<Displacing   2/coordinate 2 (-)>>>
             <<<Displacing   2/coordinate 3 (+)>>>
             <<<Displacing   2/coordinate 3 (-)>>>
             <<<Displacing   3/coordinate 1 (+)>>>
             <<<Displacing   3/coordinate 1 (-)>>>
             <<<Displacing   3/coordinate 2 (+)>>>
             <<<Displacing   3/coordinate 2 (-)>>>
             <<<Displacing   3/coordinate 3 (+)>>>
             <<<Displacing   3/coordinate 3 (-)>>>
             <<<Displacing   4/coordinate 1 (+)>>>
             <<<Displacing   4/coordinate 1 (-)>>>
             <<<Displacing   4/coordinate 2 (+)>>>
             <<<Displacing   4/coordinate 2 (-)>>>
             <<<Displacing   4/coordinate 3 (+)>>>
             <<<Displacing   4/coordinate 3 (-)>>>
             <<<Displacing   5/coordinate 1 (+)>>>
             <<<Displacing   5/coordinate 1 (-)>>>
             <<<Displacing   5/coordinate 2 (+)>>>
             <<<Displacing   5/coordinate 2 (-)>>>
             <<<Displacing   5/coordinate 3 (+)>>>
             <<<Displacing   5/coordinate 3 (-)>>>
             <<<Displacing   6/coordinate 1 (+)>>>
             <<<Displacing   6/coordinate 1 (-)>>>
             <<<Displacing   6/coordinate 2 (+)>>>
             <<<Displacing   6/coordinate 2 (-)>>>
             <<<Displacing   6/coordinate 3 (+)>>>
             <<<Displacing   6/coordinate 3 (-)>>>
             <<<Displacing   7/coordinate 1 (+)>>>
             <<<Displacing   7/coordinate 1 (-)>>>
             <<<Displacing   7/coordinate 2 (+)>>>
             <<<Displacing   7/coordinate 2 (-)>>>
             <<<Displacing   7/coordinate 3 (+)>>>
             <<<Displacing   7/coordinate 3 (-)>>>
             <<<Displacing   8/coordinate 1 (+)>>>
             <<<Displacing   8/coordinate 1 (-)>>>
             <<<Displacing   8/coordinate 2 (+)>>>
             <<<Displacing   8/coordinate 2 (-)>>>
             <<<Displacing   8/coordinate 3 (+)>>>
             <<<Displacing   8/coordinate 3 (-)>>>
             <<<Displacing   9/coordinate 1 (+)>>>
             <<<Displacing   9/coordinate 1 (-)>>>
             <<<Displacing   9/coordinate 2 (+)>>>
             <<<Displacing   9/coordinate 2 (-)>>>
             <<<Displacing   9/coordinate 3 (+)>>>
             <<<Displacing   9/coordinate 3 (-)>>>
             <<<Displacing  10/coordinate 1 (+)>>>
             <<<Displacing  10/coordinate 1 (-)>>>
             <<<Displacing  10/coordinate 2 (+)>>>
             <<<Displacing  10/coordinate 2 (-)>>>
             <<<Displacing  10/coordinate 3 (+)>>>
             <<<Displacing  10/coordinate 3 (-)>>>
             <<<Displacing  11/coordinate 1 (+)>>>
             <<<Displacing  11/coordinate 1 (-)>>>
             <<<Displacing  11/coordinate 2 (+)>>>
             <<<Displacing  11/coordinate 2 (-)>>>
             <<<Displacing  11/coordinate 3 (+)>>>
             <<<Displacing  11/coordinate 3 (-)>>>
             <<<Displacing  12/coordinate 1 (+)>>>
             <<<Displacing  12/coordinate 1 (-)>>>
             <<<Displacing  12/coordinate 2 (+)>>>
             <<<Displacing  12/coordinate 2 (-)>>>
             <<<Displacing  12/coordinate 3 (+)>>>
             <<<Displacing  12/coordinate 3 (-)>>>
             <<<Displacing  13/coordinate 1 (+)>>>
             <<<Displacing  13/coordinate 1 (-)>>>
             <<<Displacing  13/coordinate 2 (+)>>>
             <<<Displacing  13/coordinate 2 (-)>>>
             <<<Displacing  13/coordinate 3 (+)>>>
             <<<Displacing  13/coordinate 3 (-)>>>

-----------------------
VIBRATIONAL FREQUENCIES
-----------------------

   0:         0.00 cm**-1
   1:         0.00 cm**-1
   2:         0.00 cm**-1
   3:         0.00 cm**-1
   4:         0.00 cm**-1
   5:         0.00 cm**-1
   6:       138.11 cm**-1
   7:       228.50 cm**-1
   8:       252.88 cm**-1
   9:       311.30 cm**-1
  10:       330.21 cm**-1
  11:       415.91 cm**-1
  12:       495.77 cm**-1
  13:       663.19 cm**-1
  14:       892.56 cm**-1
  15:       896.66 cm**-1
  16:       960.00 cm**-1
  17:      1036.52 cm**-1
  18:      1120.48 cm**-1
  19:      1148.03 cm**-1
  20:      1180.09 cm**-1
  21:      1229.12 cm**-1
  22:      1340.96 cm**-1
  23:      1356.10 cm**-1
  24:      1421.84 cm**-1
  25:      1433.05 cm**-1
  26:      1449.34 cm**-1
  27:      1504.75 cm**-1
  28:      1524.18 cm**-1
  29:      1534.93 cm**-1
  30:      1746.37 cm**-1
  31:      3079.52 cm**-1
  32:      3084.55 cm**-1
  33:      3118.62 cm**-1
  34:      3146.20 cm**-1
  35:      3172.99 cm**-1
  36:      3189.93 cm**-1
  37:      3554.74 cm**-1
  38:      3652.89 cm**-1


------------
NORMAL MODES
------------

These modes are the cartesian displacements weighted by the diagonal matrix
M(i,i)=1/sqrt(m[i]) where m[i] is the mass of the displaced atom
Thus, these vectors are normalized but *not* orthogonal

                  0          1          2          3          4          5    
      0       0.000000   0.000000   0.000000   0.000000   0.000000   0.000000
      1       0.000000   0.000000   0.000000   0.000000   0.000000   0.000000
      2       0.000000   0.000000   0.000000   0.000000   0.000000   0.000000
      3       0.000000   0.000000   0.000000   0.000000   0.000000   0.000000
      4       0.000000   0.000000   0.000000   0.000000   0.000000   0.000000
      5       0.000000   0.000000   0.000000   0.000000   0.000000   0.000000
      6       0.000000   0.000000   0.000000   0.000000   0.000000   0.000000
      7       0.000000   0.000000   0.000000   0.000000   0.000000   0.000000
      8       0.000000   0.000000   0.000000   0.000000   0.000000   0.000000
      9       0.000000   0.000000   0.000000   0.000000   0.000000   0.000000
     10       0.000000   0.000000   0.000000   0.000000   0.000000   0.000000
     11       0.000000   0.000000   0.000000   0.000000   0.000000   0.000000
     12       0.000000   0.000000   0.000000   0.000000   0.000000   0.000000
     13       0.000000   0.000000   0.000000   0.000000   0.000000   0.000000
     14       0.000000   0.000000   0.000000   0.000000   0.000000   0.000000
     15       0.000000   0.000000   0.000000   0.000000   0.000000   0.000000
     16       0.000000   0.000000   0.000000   0.000000   0.000000   0.000000
     17       0.000000   0.000000   0.000000   0.000000   0.000000   0.000000
     18       0.000000   0.000000   0.000000   0.000000   0.000000   0.000000
     19       0.000000   0.000000   0.000000   0.000000   0.000000   0.000000
     20       0.000000   0.000000   0.000000   0.000000   0.000000   0.000000
     21       0.000000   0.000000   0.000000   0.000000   0.000000   0.000000
     22       0.000000   0.000000   0.000000   0.000000   0.000000   0.000000
     23       0.000000   0.000000   0.000000   0.000000   0.000000   0.000000
     24       0.000000   0.000000   0.000000   0.000000   0.000000   0.000000
     25       0.000000   0.000000   0.000000   0.000000   0.000000   0.000000
     26       0.000000   0.000000   0.000000   0.000000   0.000000   0.000000
     27       0.000000   0.000000   0.000000   0.000000   0.000000   0.000000
     28       0.000000   0.000000   0.000000   0.000000   0.000000   0.000000
     29       0.000000   0.000000   0.000000   0.000000   0.000000   0.000000
     30       0.000000   0.000000   0.000000   0.000000   0.000000   0.000000
     31       0.000000   0.000000   0.000000   0.000000   0.000000   0.000000
     32       0.000000   0.000000   0.000000   0.000000   0.000000   0.000000
     33       0.000000   0.000000   0.000000   0.000000   0.000000   0.000000
     34       0.000000   0.000000   0.000000   0.000000   0.000000   0.000000
     35       0.000000   0.000000   0.000000   0.000000   0.000000   0.000000
     36       0.000000   0.000000   0.000000   0.000000   0.000000   0.000000
     37       0.000000   0.000000   0.000000   0.000000   0.000000   0.000000
     38       0.000000   0.000000   0.000000   0.000000   0.000000   0.000000
                  6          7          8          9         10         11    
      0      -0.049175   0.044841  -0.010955   0.042838   0.021875  -0.087186
      1      -0.016875   0.084270  -0.011404  -0.052183  -0.001185   0.129362
      2      -0.039656  -0.030219  -0.016740   0.039936  -0.098050  -0.106260
      3      -0.144455  -0.107772   0.027165   0.035904   0.001299   0.115164
      4       0.042353   0.065639  -0.016936  -0.043485  -0.033520   0.042039
      5      -0.033690  -0.017532  -0.020123   0.037709  -0.119218  -0.132901
      6      -0.036782   0.037059  -0.006843   0.005845   0.083214  -0.055133
      7       0.043327  -0.009142   0.025365   0.025747   0.080211  -0.053514
      8       0.052176  -0.144141   0.021981  -0.010194   0.035112   0.062958
      9      -0.251639  -0.191519   0.052288   0.042372   0.001770   0.271669
     10       0.323893   0.132912  -0.049499  -0.096335  -0.051522  -0.281334
     11      -0.076508  -0.202439   0.023949   0.009230  -0.139867   0.021090
     12      -0.072944   0.049677  -0.012714   0.029326   0.043030  -0.098398
     13      -0.066829   0.050786  -0.014782  -0.041599   0.002889   0.107851
     14      -0.124453  -0.127091  -0.020065   0.090969  -0.126172  -0.141121
     15      -0.373167  -0.249602   0.064763   0.079547  -0.001844   0.382181
     16      -0.142689  -0.052414   0.002116   0.024856  -0.050077   0.190512
     17       0.026315   0.012771  -0.060059   0.109288  -0.153209  -0.388392
     18       0.073843   0.063637  -0.029624  -0.051047  -0.175226   0.055722
     19      -0.080510  -0.010301  -0.020643   0.003565  -0.067200   0.020605
     20       0.000203   0.140737   0.014547  -0.008532   0.165585   0.031707
     21       0.075651   0.256851   0.471881  -0.015230  -0.573603   0.060167
     22      -0.121105  -0.245997  -0.226825   0.042352  -0.262395  -0.138566
     23      -0.002949   0.123961  -0.000596  -0.005623   0.151066   0.019943
     24       0.151353  -0.031138  -0.365006  -0.156263  -0.138508   0.206033
     25      -0.003958   0.011739  -0.139805  -0.085808  -0.064308   0.184890
     26       0.036864   0.432325   0.470597  -0.016389   0.086989   0.151113
     27       0.095556  -0.005290  -0.241716  -0.091012  -0.071175   0.103949
     28      -0.168419   0.113464   0.302811   0.113746   0.052366  -0.121072
     29       0.001095   0.020763  -0.391624  -0.047740   0.579979   0.068816
     30       0.168760  -0.091390   0.034694  -0.066191  -0.018751  -0.018154
     31      -0.036529  -0.087041  -0.013038   0.026895  -0.080540  -0.022257
     32      -0.050306   0.218074  -0.033031  -0.029864  -0.068609   0.021202
     33       0.445889   0.093623  -0.035947   0.301996  -0.067384   0.148446
     34       0.177413   0.061792  -0.048433   0.171864  -0.098628   0.070897
     35      -0.162007   0.164962   0.059976  -0.646420   0.019034  -0.162601
     36       0.305260   0.035504  -0.015141   0.193454  -0.046686   0.119999
     37      -0.358821  -0.204758   0.047148  -0.310892  -0.016046  -0.109606
     38       0.037141   0.506107  -0.130404   0.456680  -0.083537   0.394170
                 12         13         14         15         16         17    
      0       0.015142   0.328284  -0.071634   0.036110   0.040595   0.127383
      1       0.134481  -0.046226  -0.051167  -0.051711   0.021043   0.048106
      2       0.113429  -0.056067   0.123841   0.023057  -0.048286   0.061395
      3      -0.062122   0.084468   0.061341  -0.113043  -0.027275  -0.033450
      4      -0.149758   0.038017   0.076564   0.046239  -0.018944   0.035172
      5       0.014798  -0.113268  -0.093158  -0.003962   0.112315  -0.043680
      6      -0.016268  -0.141631   0.021574  -0.004051  -0.008698  -0.014749
      7      -0.024225  -0.026015   0.005083  -0.000311  -0.000803   0.005014
      8      -0.020276   0.048632  -0.004133  -0.005938  -0.000604   0.003259
      9      -0.101193  -0.111529  -0.006564   0.102691   0.016484   0.006649
     10      -0.093084   0.320010   0.214789  -0.408424  -0.066490  -0.240565
     11      -0.049632  -0.440544  -0.139976   0.184486   0.201697  -0.216097
     12       0.042157   0.208898  -0.091774   0.000337   0.129230   0.333147
     13       0.201712  -0.117767  -0.057171  -0.179972   0.162386   0.258427
     14       0.242026  -0.003661   0.157936  -0.238959   0.149686   0.204614
     15      -0.107034  -0.223061  -0.101361   0.272522   0.059220   0.129214
     16      -0.190012  -0.136821  -0.034562   0.320000   0.086383   0.200847
     17       0.015207   0.174127   0.003413  -0.187731   0.200510   0.012397
     18       0.114110   0.060420  -0.021294   0.059999  -0.004851  -0.112882
     19       0.186157   0.058433  -0.001080   0.031159   0.010511  -0.069301
     20       0.159278   0.023081   0.067531   0.044814  -0.079900  -0.001966
     21       0.170001  -0.118661   0.175483  -0.057420  -0.107581   0.197142
     22       0.066465   0.088576   0.375567   0.267892  -0.442397  -0.019008
     23       0.153566   0.024547   0.096270   0.063086  -0.112916  -0.001577
     24       0.195917  -0.175928   0.038506  -0.140156   0.040113   0.164876
     25       0.294054  -0.174894  -0.020293  -0.199874   0.142369   0.142466
     26       0.278237  -0.088738  -0.136827  -0.161647   0.214439  -0.018824
     27       0.134510   0.025355  -0.069879  -0.002150   0.074458  -0.070094
     28       0.095829   0.414510  -0.181325   0.278146   0.024191  -0.510750
     29       0.148280   0.179175  -0.224468   0.045989   0.181766  -0.230855
     30      -0.031873  -0.010034  -0.024165  -0.001389  -0.008923  -0.009450
     31      -0.090503  -0.011888  -0.063478  -0.023375  -0.010403  -0.007455
     32      -0.197293  -0.005266  -0.127704  -0.031157  -0.111806   0.009490
     33      -0.048984  -0.101071  -0.084696   0.143090  -0.003822   0.127986
     34      -0.154802  -0.063428   0.015790   0.194537   0.145036   0.146346
     35      -0.363038   0.105477   0.430476   0.288596   0.517418   0.089511
     36      -0.070227  -0.021358   0.093659   0.044644   0.120895  -0.013065
     37      -0.146656   0.151534   0.100737  -0.242633  -0.028918  -0.217060
     38      -0.395781   0.155051   0.562806  -0.113548   0.411414  -0.273341
                 18         19         20         21         22         23    
      0      -0.058618   0.045373  -0.028254   0.026846   0.048389  -0.101787
      1      -0.233137  -0.083330  -0.144544  -0.054985   0.039507  -0.020503
      2      -0.008287  -0.129332   0.005867   0.146709   0.102162   0.052129
      3      -0.024989  -0.022802   0.079891  -0.078152   0.011223   0.080863
      4      -0.106913  -0.038737   0.247147   0.030757   0.000746  -0.017600
      5      -0.161626   0.070911   0.051850  -0.083721   0.041562   0.021177
      6       0.011084  -0.008942   0.001578  -0.005724   0.003059  -0.008396
      7       0.004038   0.008091   0.002076   0.004427  -0.002213   0.004679
      8      -0.000226   0.001755   0.000872  -0.005854  -0.000398  -0.000244
      9      -0.038582   0.029417   0.076109   0.066995  -0.058778  -0.026651
     10      -0.187175   0.027114   0.266089   0.055905  -0.195393  -0.058022
     11      -0.281306   0.298196   0.058762   0.379943  -0.370964  -0.337755
     12      -0.067957   0.280846   0.006227   0.398282  -0.365216   0.600282
     13      -0.110274  -0.061140  -0.129697   0.151015  -0.497780   0.297170
     14       0.371854  -0.531498  -0.033623  -0.041545  -0.480806  -0.516119
     15       0.016970  -0.025488   0.090516  -0.020069  -0.034789  -0.079528
     16       0.040486  -0.087880   0.337265  -0.082923  -0.126654  -0.135226
     17       0.133923  -0.033972   0.263732  -0.533020  -0.180997   0.098909
     18      -0.008392  -0.071629  -0.017737   0.004626  -0.046808   0.039285
     19       0.156613   0.077089   0.092241   0.006362   0.041342  -0.004575
     20       0.003364   0.086515  -0.051613  -0.063647  -0.049188  -0.013773
     21       0.073868   0.274867   0.019172  -0.049535   0.019816  -0.106548
     22      -0.134394   0.252751  -0.209367  -0.221522  -0.245553   0.012669
     23      -0.007895   0.098302  -0.068126  -0.074959  -0.071269  -0.007921
     24       0.179372   0.223696   0.103751  -0.037990  -0.002311  -0.080165
     25       0.419466   0.281602   0.295358   0.032222   0.118890  -0.076546
     26       0.320640  -0.019654   0.254096   0.133886   0.098472   0.048954
     27       0.091313  -0.054479   0.079220   0.074774   0.039255   0.032185
     28       0.002556  -0.296414  -0.011244   0.009171  -0.186528   0.078511
     29       0.176690  -0.182247   0.162866   0.163132   0.055646   0.047635
     30       0.018214   0.017756  -0.052593   0.032683   0.010264  -0.024368
     31       0.124756   0.007243  -0.180725   0.002544   0.017003   0.018044
     32       0.078739  -0.010961  -0.006595   0.014311  -0.018532  -0.005139
     33       0.158606  -0.094315   0.018866  -0.123192  -0.027078   0.065811
     34       0.312399  -0.113597  -0.181646  -0.197474  -0.007647   0.132257
     35       0.250415  -0.054725  -0.272566  -0.216861   0.045858   0.131769
     36       0.039696   0.017773  -0.122475  -0.005889   0.026317   0.009746
     37      -0.032879   0.148282  -0.250156   0.275413   0.009954  -0.157586
     38      -0.065984   0.181414  -0.376913   0.204315   0.049111  -0.094839
                 24         25         26         27         28         29    
      0      -0.019991   0.026139   0.010171   0.002654  -0.001602  -0.027384
      1      -0.070972  -0.013532   0.015656  -0.003113   0.006844   0.001886
      2      -0.073252  -0.014279   0.011062  -0.004572  -0.034943   0.004726
      3      -0.022486   0.069928   0.004121   0.020517   0.002697  -0.002014
      4       0.077024  -0.003361   0.005986   0.079797   0.020232  -0.003833
      5       0.133599   0.028601   0.015203  -0.026498   0.003896  -0.000304
      6       0.000805  -0.000025   0.000030  -0.000059   0.000182   0.000248
      7       0.000683  -0.000324  -0.000230  -0.000357  -0.000397   0.000127
      8       0.000960   0.000428  -0.000125   0.000601   0.000647  -0.000267
      9      -0.137311   0.045383   0.002280   0.292926   0.068439  -0.027778
     10      -0.274624   0.330515  -0.053073  -0.567171  -0.166253   0.000568
     11      -0.558832   0.265057  -0.041431   0.203805   0.036679  -0.068917
     12       0.064857  -0.059786  -0.029776  -0.022638  -0.023164   0.039725
     13       0.164726  -0.041472  -0.022781   0.000782   0.036187   0.052709
     14       0.367560   0.102967  -0.020926   0.058505   0.078790  -0.009013
     15       0.035559  -0.101879  -0.037872  -0.538712  -0.137969   0.036773
     16      -0.125481  -0.379043  -0.070835  -0.365498  -0.094674   0.055067
     17      -0.549233  -0.534272  -0.074299   0.188868   0.052584   0.047383
     18       0.021034  -0.010927  -0.049946   0.000956  -0.002467  -0.043835
     19       0.012394   0.013468  -0.123206   0.001184   0.017591   0.015101
     20       0.025120   0.005412  -0.059623   0.015923  -0.041713   0.014311
     21      -0.044997   0.081258   0.208500  -0.043824   0.260011   0.618238
     22       0.011497  -0.059099   0.482640  -0.139507   0.347026  -0.307207
     23       0.025186  -0.001753  -0.004071   0.000321  -0.000394  -0.014984
     24       0.008142  -0.001758   0.370205   0.107648  -0.434219   0.061479
     25      -0.023162  -0.011040   0.348870   0.041424  -0.243110  -0.114151
     26      -0.048064  -0.068046   0.272768  -0.126685   0.267113  -0.555161
     27      -0.017522   0.010760  -0.061523  -0.064336   0.252401   0.053454
     28       0.041936  -0.041142   0.486795   0.101940  -0.401252   0.174225
     29      -0.071731   0.020133   0.329347  -0.116421   0.437800   0.378816
     30       0.028621  -0.080597  -0.002220  -0.000986   0.002241   0.006488
     31       0.003313   0.022207   0.004245   0.001839   0.001256  -0.001902
     32      -0.016204  -0.001565  -0.005557  -0.000662  -0.001488   0.000513
     33      -0.111701   0.151484  -0.003063   0.002024  -0.009276  -0.010279
     34      -0.151249   0.292969   0.007370  -0.002437  -0.012778  -0.021014
     35      -0.088504   0.219007   0.017464  -0.016483  -0.008918  -0.015218
     36       0.032475  -0.019102   0.005864  -0.004804   0.002584   0.002133
     37       0.066521  -0.348058  -0.019682  -0.010355  -0.000863   0.025028
     38       0.096607  -0.231557   0.000246  -0.023367   0.001242   0.016142
                 30         31         32         33         34         35    
      0      -0.000458   0.002676   0.000962  -0.045048   0.016208  -0.007962
      1       0.000540  -0.001419  -0.001815   0.060947  -0.019719   0.008107
      2      -0.003099   0.001945   0.000234  -0.023305   0.007069  -0.002541
      3      -0.000116   0.021600   0.017418   0.029018   0.082336  -0.010653
      4      -0.002084   0.040256   0.035530  -0.007368  -0.032332   0.003296
      5       0.025534  -0.024759  -0.022226   0.000715   0.003533   0.000060
      6       0.000008  -0.000062  -0.000082  -0.000057  -0.000214   0.000248
      7      -0.000060  -0.000014  -0.000042  -0.000157   0.000058  -0.000016
      8       0.000025   0.000078   0.000032   0.000093   0.000027  -0.000068
      9      -0.010294  -0.550917  -0.471231  -0.200253  -0.488962   0.071980
     10      -0.032251  -0.171035  -0.146446  -0.066450  -0.162347   0.023527
     11      -0.040982   0.177332   0.152073   0.064304   0.165588  -0.025768
     12       0.004357  -0.024067  -0.009990   0.542881  -0.173705   0.072841
     13       0.002936   0.029314   0.015171  -0.713488   0.227281  -0.096648
     14      -0.005398  -0.012226  -0.004828   0.271030  -0.089147   0.034988
     15      -0.010071   0.293347   0.263199  -0.146834  -0.494827   0.056601
     16      -0.034409  -0.308372  -0.276956   0.164376   0.541850  -0.061756
     17      -0.040021   0.113144   0.103471  -0.060123  -0.208026   0.025697
     18      -0.000012  -0.016354   0.016568   0.008358  -0.013847  -0.082821
     19      -0.000353  -0.028721   0.033419  -0.006692   0.006732   0.020337
     20      -0.000217  -0.007314   0.009446   0.004076   0.000548   0.031816
     21       0.001882  -0.004711   0.002855   0.003061  -0.004910  -0.016353
     22       0.005769  -0.032625   0.034504   0.004094   0.002538   0.032814
     23       0.000481   0.313313  -0.370573  -0.041879  -0.009677  -0.326844
     24      -0.001248  -0.226313   0.267081  -0.064415   0.082146   0.352248
     25      -0.001086   0.264233  -0.314704   0.075902  -0.097333  -0.438974
     26       0.002441  -0.095885   0.111917  -0.028728   0.038036   0.163075
     27       0.000775   0.421180  -0.464572  -0.040717   0.085576   0.659879
     28      -0.000847   0.098546  -0.109356  -0.009237   0.020866   0.165112
     29       0.002782  -0.140254   0.153133   0.016486  -0.030643  -0.217384
     30      -0.018309  -0.000385  -0.000361  -0.000533  -0.001894   0.000409
     31      -0.073306  -0.000636  -0.000601  -0.000216   0.000911  -0.000126
     32      -0.005654   0.000539   0.000778  -0.000043  -0.000180  -0.000066
     33       0.532205  -0.003263  -0.003424   0.004015   0.011787  -0.001282
     34       0.441358   0.005447   0.004841  -0.005716  -0.006856  -0.000308
     35      -0.062786  -0.002093  -0.002918  -0.000761   0.008922  -0.001410
     36      -0.256503   0.007869   0.007520   0.003085   0.007530  -0.001627
     37       0.661886   0.003280   0.002826   0.000341  -0.000694   0.000346
     38      -0.043590  -0.004554  -0.004724  -0.002405  -0.006347   0.001405
                  36         37         38    
      0       0.004994   0.000049   0.000142
      1      -0.007472  -0.000579  -0.000172
      2       0.003213  -0.000079   0.000078
      3       0.002082  -0.000250  -0.002255
      4      -0.001247   0.000672   0.000352
      5       0.000021  -0.003020  -0.000019
      6      -0.000008  -0.000025   0.000002
      7       0.000050  -0.000049   0.000044
      8      -0.000079  -0.000037   0.000060
      9      -0.009601  -0.008696   0.012745
     10      -0.004041   0.000093   0.003662
     11       0.002635   0.002201  -0.002161
     12      -0.058235  -0.000495  -0.000741
     13       0.079780   0.001509   0.001095
     14      -0.029143   0.002120   0.001058
     15      -0.017221   0.010858   0.008333
     16       0.017622  -0.007201  -0.008298
     17      -0.009327   0.003476   0.001746
     18       0.019866   0.000162  -0.000042
     19      -0.041020   0.000002  -0.000050
     20       0.080779  -0.000085   0.000031
     21       0.006208  -0.000132   0.000040
     22       0.062363  -0.000447   0.000060
     23      -0.806251  -0.000323   0.000017
     24      -0.349822  -0.000126  -0.000154
     25       0.415845  -0.000131   0.000027
     26      -0.134690  -0.000333  -0.000227
     27       0.108223  -0.000905   0.000284
     28       0.017829   0.000039  -0.000018
     29      -0.021025   0.000374  -0.000161
     30      -0.000060   0.008399  -0.079362
     31       0.000066   0.052132   0.017720
     32      -0.000112  -0.018153   0.003426
     33       0.000366   0.505079   0.429936
     34       0.000483  -0.529070  -0.483088
     35       0.000842   0.134546   0.144173
     36       0.000162  -0.620946   0.677968
     37       0.000133  -0.188617   0.237235
     38       0.000224   0.149429  -0.195245


-----------
IR SPECTRUM
-----------

 Mode    freq (cm**-1)   T**2         TX         TY         TZ
-------------------------------------------------------------------
   6:       138.11    2.709644  (  1.458818  -0.566487  -0.510478)
   7:       228.50    5.226457  (  1.535007   1.174551   1.220917)
   8:       252.88    2.142680  ( -1.402615  -0.006132  -0.418704)
   9:       311.30   45.096953  (  6.179184  -2.607896  -0.336925)
  10:       330.21    0.837667  ( -0.914443   0.005074  -0.037892)
  11:       415.91   14.572533  (  3.719307   0.856705  -0.073115)
  12:       495.77    2.120672  (  0.192000  -1.000705  -1.040384)
  13:       663.19   20.806891  (  3.629230   2.652540  -0.774345)
  14:       892.56  108.595409  ( -0.980001   3.390325   9.805137)
  15:       896.66    2.888384  ( -0.187974   1.206115   1.182513)
  16:       960.00  158.062528  (  1.899651   3.849767  11.816647)
  17:      1036.52   16.372405  (  2.627308   0.479649  -3.039670)
  18:      1120.48   10.050437  ( -1.748723  -2.317268  -1.273843)
  19:      1148.03    3.166237  (  1.367967   1.122969   0.183964)
  20:      1180.09    2.135964  ( -0.857391   0.975845  -0.669756)
  21:      1229.12    1.203490  ( -0.979985  -0.443542  -0.215382)
  22:      1340.96    2.644893  (  0.613960   0.777237   1.289902)
  23:      1356.10   35.111297  ( -5.468211  -0.795769   2.139326)
  24:      1421.84    4.084070  ( -0.450579   0.999306   1.697774)
  25:      1433.05    0.786790  (  0.294676   0.650876  -0.525658)
  26:      1449.34   12.515635  (  0.748737   3.115717   1.499112)
  27:      1504.75    2.794858  ( -0.287284  -1.644237   0.093870)
  28:      1524.18   10.238309  (  0.855353  -1.463014   2.714087)
  29:      1534.93    6.933921  (  2.325419  -1.228095  -0.134653)
  30:      1746.37   35.216096  (  1.239513   5.352258  -2.243444)
  31:      3079.52    4.487954  (  0.616545   1.308138  -1.548095)
  32:      3084.55   37.395291  (  3.270338   5.148779  -0.436189)
  33:      3118.62    7.194563  ( -1.595881   2.155505  -0.039026)
  34:      3146.20   20.421751  (  3.960055  -2.176548   0.048557)
  35:      3172.99   21.165165  ( -4.216357   1.313101   1.289677)
  36:      3189.93   13.529850  (  1.197204  -1.632399   3.071128)
  37:      3554.74    0.629610  ( -0.777362  -0.061426  -0.146783)
  38:      3652.89    1.956785  (  1.356150   0.214100  -0.267962)

The first frequency considered to be a vibration is 6
The total number of vibrations considered is 33


--------------------------
THERMOCHEMISTRY AT 298.15K
--------------------------

Temperature         ... 298.15 K
Pressure            ... 1.00 atm
Total Mass          ... 93.56 AMU

Throughout the following assumptions are being made:
  (1) The electronic state is orbitally nondegenerate
  (2) There are no thermally accessible electronically excited states
  (3) Hindered rotations indicated by low frequency modes are not
      treated as such but are treated as vibrations and this may
      cause some error
  (4) All equations used are the standard statistical mechanics
      equations for an ideal gas
  (5) All vibrations are strictly harmonic

freq.     138.11  E(vib)   ...       0.42 
freq.     228.50  E(vib)   ...       0.32 
freq.     252.88  E(vib)   ...       0.30 
freq.     311.30  E(vib)   ...       0.25 
freq.     330.21  E(vib)   ...       0.24 
freq.     415.91  E(vib)   ...       0.18 
freq.     495.77  E(vib)   ...       0.14 
freq.     663.19  E(vib)   ...       0.08 
freq.     892.56  E(vib)   ...       0.03 
freq.     896.66  E(vib)   ...       0.03 
freq.     960.00  E(vib)   ...       0.03 
freq.    1036.52  E(vib)   ...       0.02 
freq.    1120.48  E(vib)   ...       0.01 
freq.    1148.03  E(vib)   ...       0.01 
freq.    1180.09  E(vib)   ...       0.01 
freq.    1229.12  E(vib)   ...       0.01 
freq.    1340.96  E(vib)   ...       0.01 
freq.    1356.10  E(vib)   ...       0.01 
freq.    1421.84  E(vib)   ...       0.00 
freq.    1433.05  E(vib)   ...       0.00 
freq.    1449.34  E(vib)   ...       0.00 
freq.    1504.75  E(vib)   ...       0.00 
freq.    1524.18  E(vib)   ...       0.00 
freq.    1534.93  E(vib)   ...       0.00 
freq.    1746.37  E(vib)   ...       0.00 
freq.    3079.52  E(vib)   ...       0.00 
freq.    3084.55  E(vib)   ...       0.00 
freq.    3118.62  E(vib)   ...       0.00 
freq.    3146.20  E(vib)   ...       0.00 
freq.    3172.99  E(vib)   ...       0.00 
freq.    3189.93  E(vib)   ...       0.00 
freq.    3554.74  E(vib)   ...       0.00 
freq.    3652.89  E(vib)   ...       0.00 

------------
INNER ENERGY
------------

The inner energy is: U= E(el) + E(ZPE) + E(vib) + E(rot) + E(trans)
    E(el)   - is the total energy from the electronic structure calculation
              = E(kin-el) + E(nuc-el) + E(el-el) + E(nuc-nuc)
    E(ZPE)  - the the zero temperature vibrational energy from the frequency calculation
    E(vib)  - the the finite temperature correction to E(ZPE) due to population
              of excited vibrational states
    E(rot)  - is the rotational thermal energy
    E(trans)- is the translational thermal energy

Summary of contributions to the inner energy U:
Electronic energy                ...   -633.10375826 Eh
Zero point energy                ...      0.11529867 Eh      72.35 kcal/mol
Thermal vibrational correction   ...      0.00341886 Eh       2.15 kcal/mol
Thermal rotational correction    ...      0.00141627 Eh       0.89 kcal/mol
Thermal translational correction ...      0.00141627 Eh       0.89 kcal/mol
-----------------------------------------------------------------------
Total thermal energy                   -632.98220819 Eh


Summary of corrections to the electronic energy:
(perhaps to be used in another calculation)
Total thermal correction                  0.00625140 Eh       3.92 kcal/mol
Non-thermal (ZPE) correction              0.11529867 Eh      72.35 kcal/mol
-----------------------------------------------------------------------
Total correction                          0.12155007 Eh      76.27 kcal/mol


--------
ENTHALPY
--------

The enthalpy is H = U + kB*T
                kB is Boltzmann's constant
Total free energy                 ...   -632.98220819 Eh 
Thermal Enthalpy correction       ...      0.00094421 Eh       0.59 kcal/mol
-----------------------------------------------------------------------
Total Enthalpy                    ...   -632.98126399 Eh


Vibrational entropy computed according to the QRRHO of S. Grimme
Chem.Eur.J. 2012 18 9955


-------
ENTROPY
-------

The entropy contributions are T*S = T*(S(el)+S(vib)+S(rot)+S(trans)
     S(el)   - electronic entropy
     S(vib)  - vibrational entropy
     S(rot)  - rotational entropy
     S(trans)- translational entropy
The entropies will be listed as mutliplied by the temperature to get
units of energy

Electronic entropy                ...      0.00000000 Eh      0.00 kcal/mol
Vibrational entropy               ...      0.00557072 Eh      3.50 kcal/mol
Rotational entropy                ...      0.01168216 Eh      7.33 kcal/mol
Translational entropy             ...      0.01877692 Eh     11.78 kcal/mol
-----------------------------------------------------------------------
Final entropy term                ...      0.03602980 Eh     22.61 kcal/mol


CAUTION: The rotational entropy is not quite correctly treated here
         because it includes a symmetry number that is not yet correctly
         implemented in ORCA!
For a nonlinear molecule the correct rotational entropy is:
    S(rot) = R*(ln(qrot/sn)+1.5)
    R    = 8.31441 J/mol/K = 1.987191683e-3 kcal/mol/K
    qrot = 158167.8490723
    sn is the rotational symmetry number. We have assumed 3 here
       if it is different for your molecule then you should correct
       the printed rotational entropy by manually evaluating the equation
       as given above

For convenience we print out the resulting values for sn=1 - 12:
 sn= 1  qrot/sn=  158167.8491 T*S(rot)=     7.98 kcal/mol T*S(tot)=    23.26 kcal/mol
 sn= 2  qrot/sn=   79083.9245 T*S(rot)=     7.57 kcal/mol T*S(tot)=    22.85 kcal/mol
 sn= 3  qrot/sn=   52722.6164 T*S(rot)=     7.33 kcal/mol T*S(tot)=    22.61 kcal/mol
 sn= 4  qrot/sn=   39541.9623 T*S(rot)=     7.16 kcal/mol T*S(tot)=    22.44 kcal/mol
 sn= 5  qrot/sn=   31633.5698 T*S(rot)=     7.03 kcal/mol T*S(tot)=    22.31 kcal/mol
 sn= 6  qrot/sn=   26361.3082 T*S(rot)=     6.92 kcal/mol T*S(tot)=    22.20 kcal/mol
 sn= 7  qrot/sn=   22595.4070 T*S(rot)=     6.83 kcal/mol T*S(tot)=    22.11 kcal/mol
 sn= 8  qrot/sn=   19770.9811 T*S(rot)=     6.75 kcal/mol T*S(tot)=    22.03 kcal/mol
 sn= 9  qrot/sn=   17574.2055 T*S(rot)=     6.68 kcal/mol T*S(tot)=    21.96 kcal/mol
 sn=10  qrot/sn=   15816.7849 T*S(rot)=     6.62 kcal/mol T*S(tot)=    21.90 kcal/mol
 sn=11  qrot/sn=   14378.8954 T*S(rot)=     6.56 kcal/mol T*S(tot)=    21.84 kcal/mol
 sn=12  qrot/sn=   13180.6541 T*S(rot)=     6.51 kcal/mol T*S(tot)=    21.79 kcal/mol


-------------------
GIBBS FREE ENTHALPY
-------------------

The Gibbs free enthalpy is G = H - T*S

Total enthalpy                    ...   -632.98126399 Eh 
Total entropy correction          ...     -0.03602980 Eh    -22.61 kcal/mol
-----------------------------------------------------------------------
Final Gibbs free enthalpy         ...   -633.01729378 Eh

For completeness - the Gibbs free enthalpy minus the electronic energy
G-E(el)                           ...      0.08646448 Eh     54.26 kcal/mol


Total Time for Numerical Frequencies  :      4911.630 sec
Time for Reference State(s)           :        56.496 sec
Time for Displacements                :      4854.835 sec

Timings for individual modules:

Sum of individual times         ...      138.290 sec (=   2.305 min)
GTO integral calculation        ...        0.667 sec (=   0.011 min)   0.5 %
SCF iterations                  ...       36.893 sec (=   0.615 min)  26.7 %
MP2 module                      ...      100.731 sec (=   1.679 min)  72.8 %
                             ****ORCA TERMINATED NORMALLY****
TOTAL RUN TIME: 0 days 1 hours 23 minutes 13 seconds 957 msec
