
                                 *****************
                                 * O   R   C   A *
                                 *****************

           --- An Ab Initio, DFT and Semiempirical electronic structure package ---

                  #######################################################
                  #                        -***-                        #
                  #  Department of molecular theory and spectroscopy    #
                  #              Directorship: Frank Neese              #
                  # Max Planck Institute for Chemical Energy Conversion #
                  #                  D-45470 Muelheim/Ruhr              #
                  #                       Germany                       #
                  #                                                     #
                  #                  All rights reserved                #
                  #                        -***-                        #
                  #######################################################


                         Program Version 4.0.1.2 - RELEASE -


 With contributions from (in alphabetic order):
   Daniel Aravena         : Magnetic Properties
   Michael Atanasov       : Ab Initio Ligand Field Theory
   Ute Becker             : Parallelization
   Martin Brehm           : Molecular dynamics
   Dmytro Bykov           : SCF Hessian
   Vijay G. Chilkuri      : MRCI spin determinant printing
   Dipayan Datta          : RHF DLPNO-CCSD density
   Achintya Kumar Dutta   : EOM-CC, STEOM-CC
   Dmitry Ganyushin       : Spin-Orbit,Spin-Spin,Magnetic field MRCI
   Yang Guo               : DLPNO-NEVPT2, CIM, IAO-localization
   Andreas Hansen         : Spin unrestricted coupled pair/coupled cluster methods
   Lee Huntington         : MR-EOM, pCC
   Robert Izsak           : Overlap fitted RIJCOSX, COSX-SCS-MP3, EOM
   Christian Kollmar      : KDIIS, OOCD, Brueckner-CCSD(T), CCSD density
   Simone Kossmann        : Meta GGA functionals, TD-DFT gradient, OOMP2, MP2 Hessian
   Martin Krupicka        : AUTO-CI
   Dagmar Lenk            : GEPOL surface
   Dimitrios Liakos       : Extrapolation schemes; parallel MDCI
   Dimitrios Manganas     : ROCIS; embedding schemes
   Dimitrios Pantazis     : SARC Basis sets
   Taras Petrenko         : DFT Hessian,TD-DFT gradient, ASA, ECA, R-Raman, ABS, FL, XAS/XES, NRVS
   Peter Pinski           : DLPNO-MP2
   Christoph Reimann      : Effective Core Potentials
   Marius Retegan         : Local ZFS, SOC
   Christoph Riplinger    : Optimizer, TS searches, QM/MM, DLPNO-CCSD(T), (RO)-DLPNO pert. Triples
   Tobias Risthaus        : Range-separated hybrids, TD-DFT gradient, RPA, STAB
   Michael Roemelt        : Restricted open shell CIS
   Masaaki Saitow         : Open-shell DLPNO
   Barbara Sandhoefer     : DKH picture change effects
   Kantharuban Sivalingam : CASSCF convergence, NEVPT2, FIC-MRCI
   Georgi Stoychev        : AutoAux
   Boris Wezisla          : Elementary symmetry handling
   Frank Wennmohs         : Technical directorship


 We gratefully acknowledge several colleagues who have allowed us to
 interface, adapt or use parts of their codes:
   Stefan Grimme, W. Hujo, H. Kruse,             : VdW corrections, initial TS optimization,
                  C. Bannwarth                     DFT functionals, gCP, sTDA/sTD-DF
   Ed Valeev                                     : LibInt (2-el integral package), F12 methods
   Garnet Chan, S. Sharma, J. Yang, R. Olivares  : DMRG
   Ulf Ekstrom                                   : XCFun DFT Library
   Mihaly Kallay                                 : mrcc  (arbitrary order and MRCC methods)
   Andreas Klamt, Michael Diedenhofen            : otool_cosmo (COSMO solvation model)
   Jiri Pittner, Ondrej Demel                    : Mk-CCSD
   Frank Weinhold                                : gennbo (NPA and NBO analysis)
   Christopher J. Cramer and Donald G. Truhlar   : smd solvation model


 Your calculation uses the libint2 library for the computation of 2-el integrals
 For citations please refer to: http://libint.valeyev.net

 This ORCA versions uses:
   CBLAS   interface :  Fast vector & matrix operations
   LAPACKE interface :  Fast linear algebra routines
   SCALAPACK package :  Parallel linear algebra routines




*****************************************
The coordinations will be read from file: inp.xyz
*****************************************


Your calculation utilizes the basis: 6-311G(d)
   H, Li - Ne  : R. Krishnan, J. S. Binkley, R. Seeger and J. A. Pople, J. Chem. Phys. 72, 650 (1980).
   Na - Ar     : A. D. McLean and G. S. Chandler J. Chem. Phys. 72, 5639, (1980).
   K  - Ca     : J.-P. Blaudeau, M. P. McGrath, L. A. Curtiss and L. Radom, J. Chem. Phys. 107, 5016 (1997).
   Ga - Kr     : L. A. Curtiss, M. P. McGrath, J.-P. Blandeau, N. E. Davis, R. C. Binning and L. Radom, J. Chem. Phys. 103, 6104 (1995).
   Pol./Diff.
   H, Li - Cl  : T. Clark, J. Chandrasekhar and P. v. R. Schleyer, J. Comp. Chem. 4, 294 (1983).
   H - Ne      : M. J. Frisch, J. A. Pople and J. S. Binkley, J. Chem. Phys. 80, 3265 (1984).

================================================================================
                                        WARNINGS
                       Please study these warnings very carefully!
================================================================================

Warning: TCutStore was < 0. Adjusted to Thresh (uncritical)

WARNING: TCut can not be >=Thresh
  ===> : TCut is set to 0.01*Thresh

WARNING: Geometry Optimization
  ===> : Switching off AutoStart
         For restart on a previous wavefunction, please use MOREAD

WARNING: Post HF methods need fully converged wavefunctions
  ===> : Setting SCFConvForced true
         You can overwrite this default with %scf ConvForced false 


INFO   : the flag for use of LIBINT has been found!

================================================================================
                                       INPUT FILE
================================================================================
NAME = run.inp
|  1> ! MP2 6-311G(d) Opt NoFrozenCore ExtremeSCF
|  2> 
|  3> %geom
|  4>  MaxIter 1
|  5>  inhess unit
|  6>  MaxStep 0.01                              
|  7>  Convergence tight
|  8>  Trust 0.1
|  9> end
| 10> 
| 11> %mp2 MaxCore 5000
| 12> end
| 13> 
| 14> *xyzfile -1 1 inp.xyz
| 15> 
| 16>                          ****END OF INPUT****
================================================================================

                       *****************************
                       * Geometry Optimization Run *
                       *****************************

Geometry optimization settings:
Update method            Update   .... BFGS
Choice of coordinates    CoordSys .... Redundant Internals
Initial Hessian          InHess   .... Unit Matrix

Convergence Tolerances:
Energy Change            TolE     ....  3.0000e-05 Eh
Max. Gradient            TolMAXG  ....  2.0000e-03 Eh/bohr
RMS Gradient             TolRMSG  ....  5.0000e-04 Eh/bohr
Max. Displacement        TolMAXD  ....  1.0000e-02 bohr
RMS Displacement         TolRMSD  ....  7.0000e-03 bohr

------------------------------------------------------------------------------
                        ORCA OPTIMIZATION COORDINATE SETUP
------------------------------------------------------------------------------

The optimization will be done in new redundant internal coordinates
Making redundant internal coordinates   ...  (new redundants) done
Evaluating the initial hessian          ... done
Evaluating the coordinates              ...  done
Calculating the B-matrix                .... done
Calculating the G-matrix                .... done
Diagonalizing the G-matrix              .... done
The first mode is                       ....   67
The number of degrees of freedom        ....   36

    -----------------------------------------------------------------
                    Redundant Internal Coordinates


    -----------------------------------------------------------------
         Definition                    Initial Value    Approx d2E/dq
    -----------------------------------------------------------------
      1. B(C   1,C   0)                  1.3762         0.500000   
      2. B(Cl  2,C   1)                  3.2594         0.500000   
      3. B(Cl  2,C   0)                  2.5760         0.500000   
      4. B(H   4,Cl  3)                  1.6118         0.500000   
      5. B(H   4,C   1)                  1.3727         0.500000   
      6. B(H   5,Cl  2)                  2.6292         0.500000   
      7. B(H   5,C   0)                  1.0849         0.500000   
      8. B(H   6,C   1)                  1.0916         0.500000   
      9. B(C   7,C   0)                  1.4900         0.500000   
     10. B(C   7,Cl  2)                  3.2045         0.500000   
     11. B(H   8,C   7)                  1.0884         0.500000   
     12. B(H   8,Cl  2)                  2.9681         0.500000   
     13. B(H   9,C   7)                  1.0909         0.500000   
     14. B(H  10,C   7)                  1.0981         0.500000   
     15. B(N  11,C   1)                  1.4395         0.500000   
     16. B(H  12,N  11)                  1.0132         0.500000   
     17. B(H  13,N  11)                  1.0156         0.500000   
     18. B(H  13,Cl  2)                  2.8751         0.500000   
     19. A(H   5,C   0,C   7)          117.0091         0.200000   
     20. A(C   1,C   0,Cl  2)          107.1792         0.200000   
     21. A(C   1,C   0,H   5)          116.4731         0.200000   
     22. A(Cl  2,C   0,C   7)          100.6093         0.200000   
     23. A(C   1,C   0,C   7)          122.5106         0.200000   
     24. A(Cl  2,C   0,H   5)           80.7356         0.200000   
     25. A(Cl  2,C   1,H   6)          108.3612         0.200000   
     26. A(Cl  2,C   1,H   4)          137.9158         0.200000   
     27. A(C   0,C   1,H   4)           90.7021         0.200000   
     28. A(C   0,C   1,Cl  2)           49.0303         0.200000   
     29. A(H   4,C   1,H   6)          100.5440         0.200000   
     30. A(Cl  2,C   1,N  11)           89.8225         0.200000   
     31. A(C   0,C   1,N  11)          120.8367         0.200000   
     32. A(H   4,C   1,N  11)          105.0474         0.200000   
     33. A(C   0,C   1,H   6)          117.2606         0.200000   
     34. A(H   6,C   1,N  11)          115.1045         0.200000   
     35. A(C   0,Cl  2,C   1)           23.7905         0.200000   
     36. A(C   0,Cl  2,C   7)           27.1945         0.200000   
     37. A(C   1,Cl  2,C   7)           45.7580         0.200000   
     38. A(C   1,H   4,Cl  3)          167.0833         0.200000   
     39. A(Cl  2,C   7,H   9)           97.5621         0.200000   
     40. A(Cl  2,C   7,H   8)           67.7271         0.200000   
     41. A(C   0,C   7,Cl  2)           52.1962         0.200000   
     42. A(H   9,C   7,H  10)          108.7559         0.200000   
     43. A(H   8,C   7,H  10)          109.0349         0.200000   
     44. A(C   0,C   7,H  10)          109.0266         0.200000   
     45. A(H   8,C   7,H   9)          108.8784         0.200000   
     46. A(C   0,C   7,H   9)          111.1469         0.200000   
     47. A(C   0,C   7,H   8)          109.9613         0.200000   
     48. A(Cl  2,C   7,H  10)          152.6154         0.200000   
     49. A(H  12,N  11,H  13)          109.2761         0.200000   
     50. A(C   1,N  11,H  13)          107.0944         0.200000   
     51. A(C   1,N  11,H  12)          110.7194         0.200000   
     52. D(Cl  2,C   1,C   0,C   7)    115.1857         0.100000   
     53. D(H   6,C   1,C   0,C   7)     23.9317         0.100000   
     54. D(N  11,C   1,C   0,Cl  2)     58.4544         0.100000   
     55. D(H   6,C   1,C   0,Cl  2)    -91.2540         0.100000   
     56. D(H   6,C   1,C   0,H   5)   -179.2890         0.100000   
     57. D(N  11,C   1,C   0,H   5)    -29.5806         0.100000   
     58. D(H   4,C   1,C   0,Cl  2)    166.4956         0.100000   
     59. D(Cl  2,C   1,C   0,H   5)    -88.0350         0.100000   
     60. D(N  11,C   1,C   0,C   7)    173.6401         0.100000   
     61. D(H   4,C   1,C   0,H   5)     78.4606         0.100000   
     62. D(H   4,C   1,C   0,C   7)    -78.3187         0.100000   
     63. D(C   7,Cl  2,C   0,C   1)    129.0683         0.100000   
     64. D(C   1,Cl  2,C   0,H   5)    114.9820         0.100000   
     65. D(C   7,Cl  2,C   0,H   5)   -115.9497         0.100000   
     66. D(C   7,Cl  2,C   1,N  11)   -162.6553         0.100000   
     67. D(C   1,Cl  2,C   0,C   7)   -129.0683         0.100000   
     68. D(C   7,Cl  2,C   1,H   4)    -50.0778         0.100000   
     69. D(C   0,Cl  2,C   1,N  11)   -132.9667         0.100000   
     70. D(C   7,Cl  2,C   1,H   6)     80.8573         0.100000   
     71. D(C   0,Cl  2,C   1,H   6)    110.5458         0.100000   
     72. D(C   0,Cl  2,C   1,H   4)    -20.3893         0.100000   
     73. D(C   7,Cl  2,C   1,C   0)    -29.6886         0.100000   
     74. D(Cl  3,H   4,C   1,Cl  2)   -137.0625         0.100000   
     75. D(Cl  3,H   4,C   1,N  11)    -30.0306         0.100000   
     76. D(Cl  3,H   4,C   1,H   6)     89.7658         0.100000   
     77. D(Cl  3,H   4,C   1,C   0)   -152.3153         0.100000   
     78. D(H   9,C   7,C   0,C   1)    -35.3846         0.100000   
     79. D(H   8,C   7,C   0,Cl  2)    -37.6147         0.100000   
     80. D(H   8,C   7,C   0,H   5)     47.3159         0.100000   
     81. D(H   9,C   7,C   0,H   5)    167.9523         0.100000   
     82. D(H   8,C   7,C   0,C   1)   -156.0210         0.100000   
     83. D(H  10,C   7,Cl  2,C   1)     79.0126         0.100000   
     84. D(H   9,C   7,Cl  2,C   1)    -85.0295         0.100000   
     85. D(H   9,C   7,Cl  2,C   0)   -110.9534         0.100000   
     86. D(H   8,C   7,Cl  2,C   1)    167.6124         0.100000   
     87. D(H   8,C   7,Cl  2,C   0)    141.6886         0.100000   
     88. D(C   0,C   7,Cl  2,C   1)     25.9238         0.100000   
     89. D(Cl  2,C   7,C   0,H   5)     84.9306         0.100000   
     90. D(Cl  2,C   7,C   0,C   1)   -118.4063         0.100000   
     91. D(H  10,C   7,C   0,Cl  2)   -157.1062         0.100000   
     92. D(H  10,C   7,C   0,H   5)    -72.1756         0.100000   
     93. D(H  10,C   7,Cl  2,C   0)     53.0888         0.100000   
     94. D(H  10,C   7,C   0,C   1)     84.4875         0.100000   
     95. D(H   9,C   7,C   0,Cl  2)     83.0217         0.100000   
     96. D(H  13,N  11,C   1,Cl  2)      6.6405         0.100000   
     97. D(H  13,N  11,C   1,H   6)    116.9088         0.100000   
     98. D(H  13,N  11,C   1,H   4)   -133.5058         0.100000   
     99. D(H  13,N  11,C   1,C   0)    -33.4114         0.100000   
    100. D(H  12,N  11,C   1,Cl  2)    125.6913         0.100000   
    101. D(H  12,N  11,C   1,H   6)   -124.0403         0.100000   
    102. D(H  12,N  11,C   1,H   4)    -14.4549         0.100000   
    103. D(H  12,N  11,C   1,C   0)     85.6395         0.100000   
    -----------------------------------------------------------------

Number of atoms                         .... 14
Number of degrees of freedom            .... 103

         *************************************************************
         *                GEOMETRY OPTIMIZATION CYCLE   1            *
         *************************************************************
---------------------------------
CARTESIAN COORDINATES (ANGSTROEM)
---------------------------------
  C     -0.263486   -0.124392   -0.182684
  C     -0.236878   -0.093394    1.192941
  Cl     2.166324    0.138198   -0.996781
  Cl    -3.127224    0.437673    1.592136
  H     -1.598826    0.073660    1.232349
  H     -0.350501    0.832501   -0.686385
  H     -0.137608   -1.048177    1.712771
  C     -0.680341   -1.332583   -0.948548
  H     -0.245171   -1.308752   -1.945872
  H     -0.361170   -2.246635   -0.445933
  H     -1.774956   -1.341258   -1.035535
  N      0.299510    1.042995    1.895172
  H     -0.408769    1.757509    2.014697
  H      1.057167    1.413304    1.329183

----------------------------
CARTESIAN COORDINATES (A.U.)
----------------------------
  NO LB      ZA    FRAG     MASS         X           Y           Z
   0 C     6.0000    0    12.011   -0.497916   -0.235067   -0.345223
   1 C     6.0000    0    12.011   -0.447635   -0.176489    2.254332
   2 Cl   17.0000    0    35.453    4.093759    0.261156   -1.883643
   3 Cl   17.0000    0    35.453   -5.909597    0.827082    3.008701
   4 H     1.0000    0     1.008   -3.021343    0.139197    2.328802
   5 H     1.0000    0     1.008   -0.662351    1.573199   -1.297080
   6 H     1.0000    0     1.008   -0.260041   -1.980767    3.236668
   7 C     6.0000    0    12.011   -1.285658   -2.518217   -1.792496
   8 H     1.0000    0     1.008   -0.463306   -2.473183   -3.677165
   9 H     1.0000    0     1.008   -0.682512   -4.245525   -0.842691
  10 H     1.0000    0     1.008   -3.354181   -2.534610   -1.956878
  11 N     7.0000    0    14.007    0.565992    1.970975    3.581356
  12 H     1.0000    0     1.008   -0.772461    3.321211    3.807226
  13 H     1.0000    0     1.008    1.997756    2.670758    2.511792

--------------------------------
INTERNAL COORDINATES (ANGSTROEM)
--------------------------------
 C      0   0   0     0.000000000000     0.00000000     0.00000000
 C      1   0   0     1.376231449391     0.00000000     0.00000000
 Cl     1   2   0     2.575982156306   107.17921418     0.00000000
 Cl     2   1   3     2.965718935811    96.87678110   163.23639668
 H      2   1   3     1.372720796114    90.70212694   166.49557260
 H      1   2   3     1.084864286939   116.47311738   271.96503382
 H      2   1   3     1.091644786040   117.26057857   268.74595402
 C      1   2   3     1.489980285105   122.51063482   115.18571532
 H      8   1   2     1.088391476647   109.96133469   203.97899237
 H      8   1   2     1.090863430577   111.14687601   324.61539080
 H      8   1   2     1.098100173945   109.02664793    84.48749206
 N      2   1   3     1.439520900587   120.83668223    58.45435114
 H     12   2   1     1.013151333050   110.71937745    85.63952095
 H     12   2   1     1.015635974772   107.09436768   326.58862896

---------------------------
INTERNAL COORDINATES (A.U.)
---------------------------
 C      0   0   0     0.000000000000     0.00000000     0.00000000
 C      1   0   0     2.600700536239     0.00000000     0.00000000
 Cl     1   2   0     4.867900801287   107.17921418     0.00000000
 Cl     2   1   3     5.604396578868    96.87678110   163.23639668
 H      2   1   3     2.594066362994    90.70212694   166.49557260
 H      1   2   3     2.050096394786   116.47311738   271.96503382
 H      2   1   3     2.062909681139   117.26057857   268.74595402
 C      1   2   3     2.815654683791   122.51063482   115.18571532
 H      8   1   2     2.056761817356   109.96133469   203.97899237
 H      8   1   2     2.061433133300   111.14687601   324.61539080
 H      8   1   2     2.075108596368   109.02664793    84.48749206
 N      2   1   3     2.720300266165   120.83668223    58.45435114
 H     12   2   1     1.914578551683   110.71937745    85.63952095
 H     12   2   1     1.919273844077   107.09436768   326.58862896

---------------------
BASIS SET INFORMATION
---------------------
There are 4 groups of distinct atoms

 Group   1 Type C   : 11s5p1d contracted to 4s3p1d pattern {6311/311/1}
 Group   2 Type Cl  : 13s10p1d contracted to 6s5p1d pattern {631111/52111/1}
 Group   3 Type H   : 5s contracted to 3s pattern {311}
 Group   4 Type N   : 11s5p1d contracted to 4s3p1d pattern {6311/311/1}

Atom   0C    basis set group =>   1
Atom   1C    basis set group =>   1
Atom   2Cl   basis set group =>   2
Atom   3Cl   basis set group =>   2
Atom   4H    basis set group =>   3
Atom   5H    basis set group =>   3
Atom   6H    basis set group =>   3
Atom   7C    basis set group =>   1
Atom   8H    basis set group =>   3
Atom   9H    basis set group =>   3
Atom  10H    basis set group =>   3
Atom  11N    basis set group =>   4
Atom  12H    basis set group =>   3
Atom  13H    basis set group =>   3
------------------------------------------------------------------------------
                           ORCA GTO INTEGRAL CALCULATION
------------------------------------------------------------------------------

                         BASIS SET STATISTICS AND STARTUP INFO

 # of primitive gaussian shells          ...  156
 # of primitive gaussian functions       ...  260
 # of contracted shells                  ...   80
 # of contracted basis functions         ...  148
 Highest angular momentum                ...    2
 Maximum contraction depth               ...    6
 Integral package used                   ... LIBINT
 Integral threshhold            Thresh   ...  3.000e-16
 Primitive cut-off              TCut     ...  3.000e-18


------------------------------ INTEGRAL EVALUATION ----------------------------


 * One electron integrals 
 Pre-screening matrix                    ... done
 Shell pair data                         ... done (   0.002 sec)

-------------------------------------------------------------------------------
                                 ORCA SCF
-------------------------------------------------------------------------------

------------
SCF SETTINGS
------------
Hamiltonian:
 Ab initio Hamiltonian  Method          .... Hartree-Fock(GTOs)


General Settings:
 Integral files         IntName         .... run
 Hartree-Fock type      HFTyp           .... RHF
 Total Charge           Charge          ....   -1
 Multiplicity           Mult            ....    1
 Number of Electrons    NEL             ....   68
 Basis Dimension        Dim             ....  148
 Nuclear Repulsion      ENuc            ....    331.3537438798 Eh

Convergence Acceleration:
 DIIS                   CNVDIIS         .... on
   Start iteration      DIISMaxIt       ....    12
   Startup error        DIISStart       ....  0.200000
   # of expansion vecs  DIISMaxEq       ....     5
   Bias factor          DIISBfac        ....   1.050
   Max. coefficient     DIISMaxC        ....  10.000
 Newton-Raphson         CNVNR           .... off
 SOSCF                  CNVSOSCF        .... on
   Start iteration      SOSCFMaxIt      ....   150
   Startup grad/error   SOSCFStart      ....  0.003300
 Level Shifting         CNVShift        .... on
   Level shift para.    LevelShift      ....    0.2500
   Turn off err/grad.   ShiftErr        ....    0.0010
 Zerner damping         CNVZerner       .... off
 Static damping         CNVDamp         .... on
   Fraction old density DampFac         ....    0.7000
   Max. Damping (<1)    DampMax         ....    0.9800
   Min. Damping (>=0)   DampMin         ....    0.0000
   Turn off err/grad.   DampErr         ....    0.1000
 Fernandez-Rico         CNVRico         .... off

SCF Procedure:
 Maximum # iterations   MaxIter         ....   125
 SCF integral mode      SCFMode         .... Direct
   Integral package                     .... LIBINT
 Reset frequeny         DirectResetFreq ....    20
 Integral Threshold     Thresh          ....  3.000e-16 Eh
 Primitive CutOff       TCut            ....  3.000e-18 Eh

Convergence Tolerance:
 Convergence Check Mode ConvCheckMode   .... All-Criteria
 Convergence forced     ConvForced      .... 1
 Energy Change          TolE            ....  1.000e-14 Eh
 Max Density Change     TolMaxP         ....  1.000e-14
 RMS Density Change     TolRMSP         ....  1.000e-14
 Orbital Gradient       TolG            ....  1.000e-09
 Orbital Rotation angle TolX            ....  1.000e-09
 DIIS Error             TolErr          ....  1.000e-14


Diagonalization of the overlap matrix:
Smallest eigenvalue                        ... 2.085e-03
Time for diagonalization                   ...    0.004 sec
Threshold for overlap eigenvalues          ... 1.000e-08
Number of eigenvalues below threshold      ... 0
Time for construction of square roots      ...    0.001 sec
Total time needed                          ...    0.005 sec

-------------------
DFT GRID GENERATION
-------------------

General Integration Accuracy     IntAcc      ...  4.340
Radial Grid Type                 RadialGrid  ... Gauss-Chebyshev
Angular Grid (max. acc.)         AngularGrid ... Lebedev-110
Angular grid pruning method      GridPruning ... 3 (G Style)
Weight generation scheme         WeightScheme... Becke
Basis function cutoff            BFCut       ...    3.0000e-16
Integration weight cutoff        WCut        ...    1.0000e-14
Grids for H and He will be reduced by one unit

# of grid points (after initial pruning)     ...  16710 (   0.0 sec)
# of grid points (after weights+screening)   ...  15675 (   0.0 sec)
nearest neighbour list constructed           ...    0.0 sec
Grid point re-assignment to atoms done       ...    0.0 sec
Grid point division into batches done        ...    0.0 sec
Reduced shell lists constructed in    0.3 sec

Total number of grid points                  ...    15675
Total number of batches                      ...      252
Average number of points per batch           ...       62
Average number of grid points per atom       ...     1120
Average number of shells per batch           ...    56.62 (70.78%)
Average number of basis functions per batch  ...   106.98 (72.28%)
Average number of large shells per batch     ...    46.11 (81.43%)
Average number of large basis fcns per batch ...    86.33 (80.70%)
Maximum spatial batch extension              ...  21.14, 22.20, 18.35 au
Average spatial batch extension              ...   3.89,  3.97,  3.97 au

Time for grid setup =    0.312 sec

------------------------------
INITIAL GUESS: MODEL POTENTIAL
------------------------------
Loading Hartree-Fock densities                     ... done
Calculating cut-offs                               ... done
Setting up the integral package                    ... done
Initializing the effective Hamiltonian             ... done
Starting the Coulomb interaction                   ... done (   0.2 sec)
Reading the grid                                   ... done
Mapping shells                                     ... done
Starting the XC term evaluation                    ... done (   0.3 sec)
Transforming the Hamiltonian                       ... done (   0.0 sec)
Diagonalizing the Hamiltonian                      ... done (   0.0 sec)
Back transforming the eigenvectors                 ... done (   0.0 sec)
Now organizing SCF variables                       ... done
                      ------------------
                      INITIAL GUESS DONE (   0.9 sec)
                      ------------------
--------------
SCF ITERATIONS
--------------
ITER       Energy         Delta-E        Max-DP      RMS-DP      [F,P]     Damp
               ***  Starting incremental Fock matrix formation  ***
  0  -1091.4339742059   0.000000000000 0.05765863  0.00174214  0.6455591 0.7000
  1  -1091.5490837262  -0.115109520319 0.04324010  0.00136671  0.4551317 0.7000
  2  -1091.6198989491  -0.070815222833 0.02733459  0.00088286  0.3210163 0.7000
  3  -1091.6651606253  -0.045261676197 0.01664115  0.00055507  0.2264484 0.7000
                               ***Turning on DIIS***
  4  -1091.6957341745  -0.030573549235 0.01008248  0.00036240  0.1595777 0.7000
  5  -1092.1104434379  -0.414709263421 0.00670739  0.00026105  0.1123541 0.7000
  6  -1092.0440360441   0.066407393785 0.02008512  0.00070387  0.0787195 0.0000
  7  -1091.7774378032   0.266598240985 0.00570272  0.00012517  0.0042590 0.0000
                      *** Initiating the SOSCF procedure ***
                           *** Shutting down DIIS ***
                      *** Re-Reading the Fockian *** 
                      *** Removing any level shift *** 
ITER      Energy       Delta-E        Grad      Rot      Max-DP    RMS-DP
  8  -1091.77522883   0.0022089728  0.002883  0.002883  0.004772  0.000102
               *** Restarting incremental Fock matrix formation ***
  9  -1091.76782856   0.0074002666  0.001235  0.002560  0.002605  0.000058
 10  -1091.76784744  -0.0000188785  0.000450  0.002428  0.003399  0.000072
 11  -1091.76785499  -0.0000075485  0.000085  0.000130  0.000305  0.000009
 12  -1091.76785534  -0.0000003494  0.000044  0.000094  0.000069  0.000002
 13  -1091.76785537  -0.0000000288  0.000014  0.000066  0.000050  0.000002
 14  -1091.76785537  -0.0000000057  0.000004  0.000010  0.000017  0.000000
 15  -1091.76785538  -0.0000000005  0.000001  0.000002  0.000003  0.000000
 16  -1091.76785538  -0.0000000001  0.000000  0.000001  0.000001  0.000000
 17  -1091.76785538  -0.0000000000  0.000000  0.000000  0.000000  0.000000
 18  -1091.76785538   0.0000000000  0.000000  0.000000  0.000000  0.000000
 19  -1091.76785538  -0.0000000000  0.000000  0.000000  0.000000  0.000000
 20  -1091.76785538   0.0000000000  0.000000  0.000000  0.000000  0.000000
 21  -1091.76785538   0.0000000000  0.000000  0.000000  0.000000  0.000000
                    ***Orbital Rotation convergence achieved***
 22  -1091.76785538  -0.0000000000  0.000000  0.000000  0.000000  0.000000
                           ***RMSP convergence achieved***
                           ***MAXP convergence achieved***
                       ***Gradient convergence achieved***
 23  -1091.76785538  -0.0000000000  0.000000  0.000000  0.000000  0.000000
                          ***Energy convergence achieved***
              ***Rediagonalizing the Fockian in SOSCF/NRSCF***

               *****************************************************
               *                     SUCCESS                       *
               *           SCF CONVERGED AFTER  24 CYCLES          *
               *****************************************************


----------------
TOTAL SCF ENERGY
----------------

Total Energy       :        -1091.76785538 Eh          -29708.51370 eV

Components:
Nuclear Repulsion  :          331.35374388 Eh            9016.59377 eV
Electronic Energy  :        -1423.12159925 Eh          -38725.10746 eV
One Electron Energy:        -2174.85015830 Eh          -59180.68150 eV
Two Electron Energy:          751.72855905 Eh           20455.57403 eV

Virial components:
Potential Energy   :        -2183.59004196 Eh          -59418.50582 eV
Kinetic Energy     :         1091.82218659 Eh           29709.99212 eV
Virial Ratio       :            1.99995024


---------------
SCF CONVERGENCE
---------------

  Last Energy change         ...    0.0000e+00  Tolerance :   1.0000e-14
  Last MAX-Density change    ...    0.0000e+00  Tolerance :   1.0000e-14
  Last RMS-Density change    ...    0.0000e+00  Tolerance :   1.0000e-14
  Last Orbital Gradient      ...    9.9934e-10  Tolerance :   1.0000e-09
  Last Orbital Rotation      ...    0.0000e+00  Tolerance :   1.0000e-09

             **** THE GBW FILE WAS UPDATED (run.gbw) ****
             **** DENSITY FILE WAS UPDATED (run.scfp.tmp) ****
             **** ENERGY FILE WAS UPDATED (run.en.tmp) ****
----------------
ORBITAL ENERGIES
----------------

  NO   OCC          E(Eh)            E(eV) 
   0   2.0000    -104.620108     -2846.8579 
   1   2.0000    -104.574682     -2845.6218 
   2   2.0000     -15.416063      -419.4924 
   3   2.0000     -11.191374      -304.5328 
   4   2.0000     -11.127764      -302.8018 
   5   2.0000     -11.127573      -302.7967 
   6   2.0000     -10.346783      -281.5503 
   7   2.0000     -10.300514      -280.2912 
   8   2.0000      -7.814291      -212.6377 
   9   2.0000      -7.812913      -212.6002 
  10   2.0000      -7.812909      -212.6001 
  11   2.0000      -7.767584      -211.3667 
  12   2.0000      -7.767089      -211.3532 
  13   2.0000      -7.767040      -211.3519 
  14   2.0000      -1.075035       -29.2532 
  15   2.0000      -0.960398       -26.1338 
  16   2.0000      -0.876163       -23.8416 
  17   2.0000      -0.816478       -22.2175 
  18   2.0000      -0.811613       -22.0851 
  19   2.0000      -0.670474       -18.2445 
  20   2.0000      -0.549616       -14.9558 
  21   2.0000      -0.533841       -14.5265 
  22   2.0000      -0.502934       -13.6855 
  23   2.0000      -0.477852       -13.0030 
  24   2.0000      -0.439041       -11.9469 
  25   2.0000      -0.412856       -11.2344 
  26   2.0000      -0.406544       -11.0626 
  27   2.0000      -0.287345        -7.8190 
  28   2.0000      -0.268181        -7.2976 
  29   2.0000      -0.267924        -7.2906 
  30   2.0000      -0.259158        -7.0520 
  31   2.0000      -0.224608        -6.1119 
  32   2.0000      -0.223270        -6.0755 
  33   2.0000      -0.186504        -5.0750 
  34   0.0000       0.223561         6.0834 
  35   0.0000       0.277537         7.5522 
  36   0.0000       0.291301         7.9267 
  37   0.0000       0.312088         8.4924 
  38   0.0000       0.342709         9.3256 
  39   0.0000       0.343946         9.3593 
  40   0.0000       0.357623         9.7314 
  41   0.0000       0.376027        10.2322 
  42   0.0000       0.418803        11.3962 
  43   0.0000       0.470003        12.7894 
  44   0.0000       0.489287        13.3142 
  45   0.0000       0.523571        14.2471 
  46   0.0000       0.552324        15.0295 
  47   0.0000       0.585801        15.9405 
  48   0.0000       0.592319        16.1178 
  49   0.0000       0.599650        16.3173 
  50   0.0000       0.615445        16.7471 
  51   0.0000       0.640564        17.4306 
  52   0.0000       0.647232        17.6121 
  53   0.0000       0.656529        17.8651 
  54   0.0000       0.681464        18.5436 
  55   0.0000       0.691277        18.8106 
  56   0.0000       0.729079        19.8392 
  57   0.0000       0.735626        20.0174 
  58   0.0000       0.774835        21.0843 
  59   0.0000       0.782508        21.2931 
  60   0.0000       0.844301        22.9746 
  61   0.0000       0.867169        23.5969 
  62   0.0000       0.894676        24.3454 
  63   0.0000       0.904761        24.6198 
  64   0.0000       0.923779        25.1373 
  65   0.0000       0.928745        25.2724 
  66   0.0000       0.941744        25.6262 
  67   0.0000       0.964672        26.2501 
  68   0.0000       1.019210        27.7341 
  69   0.0000       1.039330        28.2816 
  70   0.0000       1.087619        29.5956 
  71   0.0000       1.127095        30.6698 
  72   0.0000       1.143961        31.1288 
  73   0.0000       1.178881        32.0790 
  74   0.0000       1.218763        33.1642 
  75   0.0000       1.291791        35.1514 
  76   0.0000       1.300885        35.3989 
  77   0.0000       1.349066        36.7100 
  78   0.0000       1.354931        36.8696 
  79   0.0000       1.355878        36.8953 
  80   0.0000       1.358817        36.9753 
  81   0.0000       1.403384        38.1880 
  82   0.0000       1.408186        38.3187 
  83   0.0000       1.425460        38.7887 
  84   0.0000       1.436129        39.0790 
  85   0.0000       1.464104        39.8403 
  86   0.0000       1.557604        42.3846 
  87   0.0000       1.579367        42.9767 
  88   0.0000       1.628994        44.3272 
  89   0.0000       1.665116        45.3101 
  90   0.0000       1.744022        47.4573 
  91   0.0000       1.783953        48.5438 
  92   0.0000       1.857931        50.5569 
  93   0.0000       1.890371        51.4396 
  94   0.0000       1.898012        51.6475 
  95   0.0000       1.983589        53.9762 
  96   0.0000       2.050422        55.7948 
  97   0.0000       2.114771        57.5459 
  98   0.0000       2.153047        58.5874 
  99   0.0000       2.313460        62.9524 
 100   0.0000       2.326821        63.3160 
 101   0.0000       2.384791        64.8935 
 102   0.0000       2.403505        65.4027 
 103   0.0000       2.456619        66.8480 
 104   0.0000       2.555026        69.5258 
 105   0.0000       2.661194        72.4148 
 106   0.0000       2.676445        72.8298 
 107   0.0000       2.684086        73.0377 
 108   0.0000       2.696682        73.3804 
 109   0.0000       2.727383        74.2159 
 110   0.0000       2.746151        74.7266 
 111   0.0000       2.786823        75.8333 
 112   0.0000       2.801177        76.2239 
 113   0.0000       2.847808        77.4928 
 114   0.0000       2.856737        77.7358 
 115   0.0000       2.882103        78.4260 
 116   0.0000       2.923415        79.5502 
 117   0.0000       3.014841        82.0380 
 118   0.0000       3.078762        83.7774 
 119   0.0000       3.248261        88.3897 
 120   0.0000       3.265265        88.8524 
 121   0.0000       3.327723        90.5519 
 122   0.0000       3.429501        93.3215 
 123   0.0000       3.479169        94.6730 
 124   0.0000       3.537087        96.2490 
 125   0.0000       3.652111        99.3790 
 126   0.0000       3.696123       100.5766 
 127   0.0000       3.737197       101.6943 
 128   0.0000       3.849279       104.7442 
 129   0.0000       4.141362       112.6922 
 130   0.0000       4.459660       121.3535 
 131   0.0000       4.521724       123.0424 
 132   0.0000       4.682360       127.4135 
 133   0.0000       5.198531       141.4592 
 134   0.0000      10.399752       282.9916 
 135   0.0000      10.535986       286.6988 
 136   0.0000      24.632231       670.2771 
 137   0.0000      24.931648       678.4246 
 138   0.0000      25.287020       688.0948 
 139   0.0000      26.463150       720.0989 
 140   0.0000      26.510741       721.3939 
 141   0.0000      26.529497       721.9043 
 142   0.0000      26.602132       723.8808 
 143   0.0000      26.776441       728.6240 
 144   0.0000      26.852804       730.7020 
 145   0.0000      36.972564      1006.0746 
 146   0.0000     219.213623      5965.1059 
 147   0.0000     219.380979      5969.6599 

                    ********************************
                    * MULLIKEN POPULATION ANALYSIS *
                    ********************************

-----------------------
MULLIKEN ATOMIC CHARGES
-----------------------
   0 C :   -0.038049
   1 C :   -0.229382
   2 Cl:   -0.813879
   3 Cl:   -0.694616
   4 H :    0.332360
   5 H :    0.265729
   6 H :    0.223964
   7 C :   -0.617797
   8 H :    0.256219
   9 H :    0.218847
  10 H :    0.233996
  11 N :   -0.846445
  12 H :    0.339312
  13 H :    0.369742
Sum of atomic charges:   -1.0000000

--------------------------------
MULLIKEN REDUCED ORBITAL CHARGES
--------------------------------
  0 C s       :     3.327719  s :     3.327719
      pz      :     0.950569  p :     2.626285
      px      :     0.624945
      py      :     1.050771
      dz2     :     0.019152  d :     0.084046
      dxz     :     0.017915
      dyz     :     0.025841
      dx2y2   :     0.015014
      dxy     :     0.006124
  1 C s       :     3.217389  s :     3.217389
      pz      :     0.839125  p :     2.915504
      px      :     1.103465
      py      :     0.972914
      dz2     :     0.027727  d :     0.096489
      dxz     :     0.010628
      dyz     :     0.030085
      dx2y2   :     0.019755
      dxy     :     0.008295
  2 Cls       :     5.986778  s :     5.986778
      pz      :     3.973416  p :    11.825850
      px      :     3.863755
      py      :     3.988679
      dz2     :     0.000143  d :     0.001250
      dxz     :     0.000371
      dyz     :     0.000039
      dx2y2   :     0.000521
      dxy     :     0.000177
  3 Cls       :     5.980759  s :     5.980759
      pz      :     3.978797  p :    11.707361
      px      :     3.750301
      py      :     3.978263
      dz2     :     0.001114  d :     0.006496
      dxz     :     0.001005
      dyz     :     0.000071
      dx2y2   :     0.003279
      dxy     :     0.001027
  4 H s       :     0.667640  s :     0.667640
  5 H s       :     0.734271  s :     0.734271
  6 H s       :     0.776036  s :     0.776036
  7 C s       :     3.345323  s :     3.345323
      pz      :     1.114896  p :     3.204055
      px      :     1.094329
      py      :     0.994830
      dz2     :     0.016103  d :     0.068419
      dxz     :     0.008397
      dyz     :     0.016152
      dx2y2   :     0.021959
      dxy     :     0.005808
  8 H s       :     0.743781  s :     0.743781
  9 H s       :     0.781153  s :     0.781153
 10 H s       :     0.766004  s :     0.766004
 11 N s       :     3.688011  s :     3.688011
      pz      :     1.702596  p :     4.122011
      px      :     1.250285
      py      :     1.169129
      dz2     :     0.004042  d :     0.036423
      dxz     :     0.008099
      dyz     :     0.007231
      dx2y2   :     0.002663
      dxy     :     0.014389
 12 H s       :     0.660688  s :     0.660688
 13 H s       :     0.630258  s :     0.630258


                     *******************************
                     * LOEWDIN POPULATION ANALYSIS *
                     *******************************

----------------------
LOEWDIN ATOMIC CHARGES
----------------------
   0 C :    0.078008
   1 C :   -0.241303
   2 Cl:   -0.752388
   3 Cl:   -0.602327
   4 H :    0.188009
   5 H :    0.126928
   6 H :    0.101127
   7 C :   -0.275575
   8 H :    0.123672
   9 H :    0.110770
  10 H :    0.120893
  11 N :   -0.372887
  12 H :    0.193746
  13 H :    0.201327

-------------------------------
LOEWDIN REDUCED ORBITAL CHARGES
-------------------------------
  0 C s       :     2.894741  s :     2.894741
      pz      :     1.114643  p :     2.870477
      px      :     0.654127
      py      :     1.101708
      dz2     :     0.039048  d :     0.156774
      dxz     :     0.034067
      dyz     :     0.048914
      dx2y2   :     0.023322
      dxy     :     0.011423
  1 C s       :     2.842843  s :     2.842843
      pz      :     1.068061  p :     3.205322
      px      :     1.112283
      py      :     1.024978
      dz2     :     0.060781  d :     0.193138
      dxz     :     0.018350
      dyz     :     0.059950
      dx2y2   :     0.036241
      dxy     :     0.017816
  2 Cls       :     5.946686  s :     5.946686
      pz      :     3.965802  p :    11.804318
      px      :     3.855415
      py      :     3.983101
      dz2     :     0.000135  d :     0.001384
      dxz     :     0.000466
      dyz     :     0.000047
      dx2y2   :     0.000558
      dxy     :     0.000178
  3 Cls       :     5.877194  s :     5.877194
      pz      :     3.980022  p :    11.717825
      px      :     3.758919
      py      :     3.978884
      dz2     :     0.001252  d :     0.007308
      dxz     :     0.001111
      dyz     :     0.000076
      dx2y2   :     0.003714
      dxy     :     0.001155
  4 H s       :     0.811991  s :     0.811991
  5 H s       :     0.873072  s :     0.873072
  6 H s       :     0.898873  s :     0.898873
  7 C s       :     2.882881  s :     2.882881
      pz      :     1.106029  p :     3.285860
      px      :     1.101970
      py      :     1.077860
      dz2     :     0.023850  d :     0.106834
      dxz     :     0.011456
      dyz     :     0.027398
      dx2y2   :     0.033892
      dxy     :     0.010238
  8 H s       :     0.876328  s :     0.876328
  9 H s       :     0.889230  s :     0.889230
 10 H s       :     0.879107  s :     0.879107
 11 N s       :     3.192208  s :     3.192208
      pz      :     1.650504  p :     4.128966
      px      :     1.260752
      py      :     1.217711
      dz2     :     0.004808  d :     0.051713
      dxz     :     0.009712
      dyz     :     0.011168
      dx2y2   :     0.005799
      dxy     :     0.020225
 12 H s       :     0.806254  s :     0.806254
 13 H s       :     0.798673  s :     0.798673


                      *****************************
                      * MAYER POPULATION ANALYSIS *
                      *****************************

  NA   - Mulliken gross atomic population
  ZA   - Total nuclear charge
  QA   - Mulliken gross atomic charge
  VA   - Mayer's total valence
  BVA  - Mayer's bonded valence
  FA   - Mayer's free valence

  ATOM       NA         ZA         QA         VA         BVA        FA
  0 C      6.0380     6.0000    -0.0380     3.5691     3.5691    -0.0000
  1 C      6.2294     6.0000    -0.2294     3.4896     3.4896    -0.0000
  2 Cl    17.8139    17.0000    -0.8139     0.2708     0.2708    -0.0000
  3 Cl    17.6946    17.0000    -0.6946     0.4366     0.4366    -0.0000
  4 H      0.6676     1.0000     0.3324     0.8402     0.8402    -0.0000
  5 H      0.7343     1.0000     0.2657     0.8940     0.8940    -0.0000
  6 H      0.7760     1.0000     0.2240     0.9233     0.9233    -0.0000
  7 C      6.6178     6.0000    -0.6178     3.6666     3.6666    -0.0000
  8 H      0.7438     1.0000     0.2562     0.9000     0.9000     0.0000
  9 H      0.7812     1.0000     0.2188     0.9159     0.9159    -0.0000
 10 H      0.7660     1.0000     0.2340     0.9027     0.9027    -0.0000
 11 N      7.8464     7.0000    -0.8464     2.5898     2.5898     0.0000
 12 H      0.6607     1.0000     0.3393     0.8518     0.8518     0.0000
 13 H      0.6303     1.0000     0.3697     0.8361     0.8361    -0.0000

  Mayer bond orders larger than 0.1
B(  0-C ,  1-C ) :   1.3566 B(  0-C ,  2-Cl) :   0.2830 B(  0-C ,  5-H ) :   0.9189 
B(  0-C ,  7-C ) :   0.9561 B(  1-C ,  4-H ) :   0.4104 B(  1-C ,  6-H ) :   0.9450 
B(  1-C , 11-N ) :   0.9063 B(  3-Cl,  4-H ) :   0.3859 B(  7-C ,  8-H ) :   0.9275 
B(  7-C ,  9-H ) :   0.9453 B(  7-C , 10-H ) :   0.9144 B( 11-N , 12-H ) :   0.8503 
B( 11-N , 13-H ) :   0.8345 

-------
TIMINGS
-------

Total SCF time: 0 days 0 hours 1 min 27 sec 

Total time                  ....      87.842 sec
Sum of individual times     ....      87.803 sec  (100.0%)

Fock matrix formation       ....      86.827 sec  ( 98.8%)
Diagonalization             ....       0.049 sec  (  0.1%)
Density matrix formation    ....       0.007 sec  (  0.0%)
Population analysis         ....       0.006 sec  (  0.0%)
Initial guess               ....       0.556 sec  (  0.6%)
Orbital Transformation      ....       0.000 sec  (  0.0%)
Orbital Orthonormalization  ....       0.000 sec  (  0.0%)
DIIS solution               ....       0.010 sec  (  0.0%)
SOSCF solution              ....       0.038 sec  (  0.0%)

------------------------------------------------------------------------------
                                ORCA  MP2 
------------------------------------------------------------------------------

MP2 will be done in the AO integral direct mode
The Q1-step will be done using symmetric double matrices
Dimension of the basis                    ...  148
Memory devoted for MP2                    ... 5000 MB   
Memory needed for all in one shot         ...  424 MB
Number of MOs that can be treated together...  400      
MP2 density construction                  ... relaxed
The MP2 gradient is requested => amplitudes will be stored on disk
Total number of MOs              ...   34
Number of MOs treated per batch  ...   34 
Number of batches necessary      ...    1 
OPERATORS   0/  0 PASS   0
-----------------------------------------------
 MP2 CORRELATION ENERGY   :     -1.050371767 Eh
-----------------------------------------------


---------------------
MP2 DENSITY FORMATION
---------------------

Completing the external part of the density      ... done
Storing the unrelaxed density                    ... done

Calculating G(D)                                 ... done
Completing the Lagrangian                        ... done
Solving the Z-vector equations                   ... 

------------------------------------------------------------------------------
                           ORCA CP-SCF CALCULATION
------------------------------------------------------------------------------

Input orbitals are from        ... run.gbw
Input Perturbation             ... run.pin.tmp
Wavefunction output            ... run.pout.tmp
Perturbation mode              ... Real perturbation
Solver                         ... POPLE
Max. number of iterations      ... 128
Convergence tolerance          ... 1.000e-11
Integral handling              ... Direct
Number of perturbations        ... 1
Number of operators            ... 1
Orbital ranges used for CP-SCF:
 Operator 0:  Orbitals   0... 33  to  34...147
Variables per vector in CP-SCF ... 3876
Number of vectors sought       ... 1
     CP-SCF ITERATION   0: 
     CP-SCF ITERATION   1:      0.002916636543
     CP-SCF ITERATION   2:      0.000298214578
     CP-SCF ITERATION   3:      0.000047027229
     CP-SCF ITERATION   4:      0.000004456498
     CP-SCF ITERATION   5:      0.000000627581
     CP-SCF ITERATION   6:      0.000000043024
     CP-SCF ITERATION   7:      0.000000003143
     CP-SCF ITERATION   8:      0.000000000257
     CP-SCF ITERATION   9:      0.000000000030
     CP-SCF ITERATION  10:      0.000000000004
                                                 ... done
Finalizing the relaxed density                   ... done
Transforming P to the AO basis                   ... done
Storing the relaxed density                      ... done

------------------------------------
ENERGY WEIGHTED DENSITY FINALIZATION
------------------------------------

Gathering the parts of the W-matrix              ...                                                      done
Forming the Z-density                            ... done
Transforming Z to the AO basis                   ... done
Calculating G(Z)                                 ... done
Finalizing the W-matrix                          ...                                                      done
Transforming W to the AO basis and storing       ... done

                *********************************************
                * UNRELAXED MP2 DENSITY POPULATION ANALYSIS *
                *********************************************

------------------------------------------------------------------------------
                           ORCA POPULATION ANALYSIS
------------------------------------------------------------------------------
Input electron density              ... run.pmp2ur
BaseName (.gbw .S,...)              ... run

                    ********************************
                    * MULLIKEN POPULATION ANALYSIS *
                    ********************************

-----------------------
MULLIKEN ATOMIC CHARGES
-----------------------
   0 C :   -0.060187
   1 C :   -0.229196
   2 Cl:   -0.804197
   3 Cl:   -0.686246
   4 H :    0.326283
   5 H :    0.267561
   6 H :    0.226391
   7 C :   -0.623572
   8 H :    0.258079
   9 H :    0.221337
  10 H :    0.235830
  11 N :   -0.838996
  12 H :    0.338592
  13 H :    0.368318
Sum of atomic charges:   -1.0000000

--------------------------------
MULLIKEN REDUCED ORBITAL CHARGES
--------------------------------
  0 C s       :     3.323944  s :     3.323944
      pz      :     0.947612  p :     2.635140
      px      :     0.640445
      py      :     1.047083
      dz2     :     0.022470  d :     0.101102
      dxz     :     0.021026
      dyz     :     0.029960
      dx2y2   :     0.018020
      dxy     :     0.009626
  1 C s       :     3.214054  s :     3.214054
      pz      :     0.837253  p :     2.897489
      px      :     1.089585
      py      :     0.970652
      dz2     :     0.031223  d :     0.117654
      dxz     :     0.015647
      dyz     :     0.033999
      dx2y2   :     0.024124
      dxy     :     0.012660
  2 Cls       :     5.979611  s :     5.979611
      pz      :     3.956842  p :    11.773751
      px      :     3.844219
      py      :     3.972690
      dz2     :     0.010012  d :     0.050835
      dxz     :     0.010376
      dyz     :     0.009822
      dx2y2   :     0.010474
      dxy     :     0.010151
  3 Cls       :     5.973105  s :     5.973105
      pz      :     3.962653  p :    11.657009
      px      :     3.732195
      py      :     3.962161
      dz2     :     0.011000  d :     0.056132
      dxz     :     0.010970
      dyz     :     0.009872
      dx2y2   :     0.013302
      dxy     :     0.010988
  4 H s       :     0.673717  s :     0.673717
  5 H s       :     0.732439  s :     0.732439
  6 H s       :     0.773609  s :     0.773609
  7 C s       :     3.341844  s :     3.341844
      pz      :     1.110879  p :     3.192984
      px      :     1.090544
      py      :     0.991561
      dz2     :     0.020206  d :     0.088744
      dxz     :     0.012726
      dyz     :     0.019874
      dx2y2   :     0.025703
      dxy     :     0.010233
  8 H s       :     0.741921  s :     0.741921
  9 H s       :     0.778663  s :     0.778663
 10 H s       :     0.764170  s :     0.764170
 11 N s       :     3.683485  s :     3.683485
      pz      :     1.690617  p :     4.099283
      px      :     1.244891
      py      :     1.163775
      dz2     :     0.008348  d :     0.056228
      dxz     :     0.012149
      dyz     :     0.011176
      dx2y2   :     0.006613
      dxy     :     0.017941
 12 H s       :     0.661408  s :     0.661408
 13 H s       :     0.631682  s :     0.631682


                     *******************************
                     * LOEWDIN POPULATION ANALYSIS *
                     *******************************

----------------------
LOEWDIN ATOMIC CHARGES
----------------------
   0 C :    0.056237
   1 C :   -0.244909
   2 Cl:   -0.742983
   3 Cl:   -0.593744
   4 H :    0.184481
   5 H :    0.130427
   6 H :    0.105242
   7 C :   -0.286739
   8 H :    0.127118
   9 H :    0.114599
  10 H :    0.124235
  11 N :   -0.371114
  12 H :    0.195012
  13 H :    0.202138

-------------------------------
LOEWDIN REDUCED ORBITAL CHARGES
-------------------------------
  0 C s       :     2.893390  s :     2.893390
      pz      :     1.108095  p :     2.873274
      px      :     0.668687
      py      :     1.096492
      dz2     :     0.044101  d :     0.177099
      dxz     :     0.037125
      dyz     :     0.053511
      dx2y2   :     0.027052
      dxy     :     0.015310
  1 C s       :     2.843552  s :     2.843552
      pz      :     1.061888  p :     3.183634
      px      :     1.099884
      py      :     1.021863
      dz2     :     0.065770  d :     0.217723
      dxz     :     0.023922
      dyz     :     0.064058
      dx2y2   :     0.041203
      dxy     :     0.022770
  2 Cls       :     5.939375  s :     5.939375
      pz      :     3.949085  p :    11.751888
      px      :     3.835780
      py      :     3.967023
      dz2     :     0.010101  d :     0.051719
      dxz     :     0.010673
      dyz     :     0.009880
      dx2y2   :     0.010796
      dxy     :     0.010269
  3 Cls       :     5.869773  s :     5.869773
      pz      :     3.963764  p :    11.666337
      px      :     3.739891
      py      :     3.962682
      dz2     :     0.011243  d :     0.057633
      dxz     :     0.011204
      dyz     :     0.009894
      dx2y2   :     0.014022
      dxy     :     0.011270
  4 H s       :     0.815519  s :     0.815519
  5 H s       :     0.869573  s :     0.869573
  6 H s       :     0.894758  s :     0.894758
  7 C s       :     2.883634  s :     2.883634
      pz      :     1.101810  p :     3.272899
      px      :     1.098127
      py      :     1.072962
      dz2     :     0.028404  d :     0.130206
      dxz     :     0.016332
      dyz     :     0.031985
      dx2y2   :     0.038359
      dxy     :     0.015126
  8 H s       :     0.872882  s :     0.872882
  9 H s       :     0.885401  s :     0.885401
 10 H s       :     0.875765  s :     0.875765
 11 N s       :     3.191133  s :     3.191133
      pz      :     1.639168  p :     4.106400
      px      :     1.255534
      py      :     1.211698
      dz2     :     0.009378  d :     0.073582
      dxz     :     0.014102
      dyz     :     0.015742
      dx2y2   :     0.010042
      dxy     :     0.024318
 12 H s       :     0.804988  s :     0.804988
 13 H s       :     0.797862  s :     0.797862


                      *****************************
                      * MAYER POPULATION ANALYSIS *
                      *****************************

  NA   - Mulliken gross atomic population
  ZA   - Total nuclear charge
  QA   - Mulliken gross atomic charge
  VA   - Mayer's total valence
  BVA  - Mayer's bonded valence
  FA   - Mayer's free valence

  ATOM       NA         ZA         QA         VA         BVA        FA
  0 C      6.0602     6.0000    -0.0602     3.6817     3.3551     0.3266
  1 C      6.2292     6.0000    -0.2292     3.6084     3.2762     0.3322
  2 Cl    17.8042    17.0000    -0.8042     0.6685     0.2520     0.4166
  3 Cl    17.6862    17.0000    -0.6862     0.8140     0.4073     0.4067
  4 H      0.6737     1.0000     0.3263     0.8441     0.7875     0.0566
  5 H      0.7324     1.0000     0.2676     0.8953     0.8580     0.0373
  6 H      0.7736     1.0000     0.2264     0.9240     0.8843     0.0398
  7 C      6.6236     6.0000    -0.6236     3.7826     3.5081     0.2745
  8 H      0.7419     1.0000     0.2581     0.9012     0.8642     0.0370
  9 H      0.7787     1.0000     0.2213     0.9171     0.8797     0.0374
 10 H      0.7642     1.0000     0.2358     0.9045     0.8648     0.0397
 11 N      7.8390     7.0000    -0.8390     2.7967     2.4607     0.3360
 12 H      0.6614     1.0000     0.3386     0.8543     0.8144     0.0400
 13 H      0.6317     1.0000     0.3683     0.8392     0.7997     0.0395

  Mayer bond orders larger than 0.1
B(  0-C ,  1-C ) :   1.2677 B(  0-C ,  2-Cl) :   0.2672 B(  0-C ,  5-H ) :   0.8835 
B(  0-C ,  7-C ) :   0.9035 B(  1-C ,  4-H ) :   0.3836 B(  1-C ,  6-H ) :   0.9078 
B(  1-C , 11-N ) :   0.8517 B(  3-Cl,  4-H ) :   0.3700 B(  7-C ,  8-H ) :   0.8928 
B(  7-C ,  9-H ) :   0.9096 B(  7-C , 10-H ) :   0.8786 B( 11-N , 12-H ) :   0.8143 
B( 11-N , 13-H ) :   0.7995 


                *******************************************
                * RELAXED MP2 DENSITY POPULATION ANALYSIS *
                *******************************************

------------------------------------------------------------------------------
                           ORCA POPULATION ANALYSIS
------------------------------------------------------------------------------
Input electron density              ... run.pmp2re
BaseName (.gbw .S,...)              ... run

                    ********************************
                    * MULLIKEN POPULATION ANALYSIS *
                    ********************************

-----------------------
MULLIKEN ATOMIC CHARGES
-----------------------
   0 C :   -0.117284
   1 C :   -0.223433
   2 Cl:   -0.752361
   3 Cl:   -0.621361
   4 H :    0.291393
   5 H :    0.245383
   6 H :    0.226746
   7 C :   -0.661024
   8 H :    0.257937
   9 H :    0.222749
  10 H :    0.232824
  11 N :   -0.792171
  12 H :    0.330359
  13 H :    0.360244
Sum of atomic charges:   -1.0000000

--------------------------------
MULLIKEN REDUCED ORBITAL CHARGES
--------------------------------
  0 C s       :     3.305038  s :     3.305038
      pz      :     0.925197  p :     2.721596
      px      :     0.777399
      py      :     1.018999
      dz2     :     0.020420  d :     0.090650
      dxz     :     0.018147
      dyz     :     0.026931
      dx2y2   :     0.015869
      dxy     :     0.009284
  1 C s       :     3.210621  s :     3.210621
      pz      :     0.882725  p :     2.903995
      px      :     1.034547
      py      :     0.986723
      dz2     :     0.027106  d :     0.108817
      dxz     :     0.016077
      dyz     :     0.032430
      dx2y2   :     0.021333
      dxy     :     0.011871
  2 Cls       :     5.979470  s :     5.979470
      pz      :     3.946675  p :    11.721989
      px      :     3.806902
      py      :     3.968412
      dz2     :     0.010012  d :     0.050901
      dxz     :     0.010408
      dyz     :     0.009828
      dx2y2   :     0.010494
      dxy     :     0.010159
  3 Cls       :     5.968228  s :     5.968228
      pz      :     3.958832  p :    11.596576
      px      :     3.681665
      py      :     3.956079
      dz2     :     0.011089  d :     0.056557
      dxz     :     0.010994
      dyz     :     0.009870
      dx2y2   :     0.013552
      dxy     :     0.011054
  4 H s       :     0.708607  s :     0.708607
  5 H s       :     0.754617  s :     0.754617
  6 H s       :     0.773254  s :     0.773254
  7 C s       :     3.329803  s :     3.329803
      pz      :     1.132891  p :     3.253196
      px      :     1.098543
      py      :     1.021762
      dz2     :     0.018056  d :     0.078026
      dxz     :     0.011369
      dyz     :     0.016650
      dx2y2   :     0.022360
      dxy     :     0.009590
  8 H s       :     0.742063  s :     0.742063
  9 H s       :     0.777251  s :     0.777251
 10 H s       :     0.767176  s :     0.767176
 11 N s       :     3.655691  s :     3.655691
      pz      :     1.680488  p :     4.084329
      px      :     1.242833
      py      :     1.161008
      dz2     :     0.008329  d :     0.052151
      dxz     :     0.011331
      dyz     :     0.010377
      dx2y2   :     0.006173
      dxy     :     0.015941
 12 H s       :     0.669641  s :     0.669641
 13 H s       :     0.639756  s :     0.639756


                     *******************************
                     * LOEWDIN POPULATION ANALYSIS *
                     *******************************

----------------------
LOEWDIN ATOMIC CHARGES
----------------------
   0 C :   -0.026479
   1 C :   -0.234251
   2 Cl:   -0.703232
   3 Cl:   -0.541146
   4 H :    0.176650
   5 H :    0.123453
   6 H :    0.111460
   7 C :   -0.319480
   8 H :    0.131577
   9 H :    0.119076
  10 H :    0.126828
  11 N :   -0.367287
  12 H :    0.197582
  13 H :    0.205249

-------------------------------
LOEWDIN REDUCED ORBITAL CHARGES
-------------------------------
  0 C s       :     2.887377  s :     2.887377
      pz      :     1.094645  p :     2.969750
      px      :     0.789702
      py      :     1.085403
      dz2     :     0.043972  d :     0.169351
      dxz     :     0.033107
      dyz     :     0.051646
      dx2y2   :     0.025266
      dxy     :     0.015360
  1 C s       :     2.850403  s :     2.850403
      pz      :     1.083791  p :     3.172640
      px      :     1.061323
      py      :     1.027526
      dz2     :     0.060750  d :     0.211208
      dxz     :     0.026434
      dyz     :     0.063022
      dx2y2   :     0.038902
      dxy     :     0.022100
  2 Cls       :     5.941219  s :     5.941219
      pz      :     3.941741  p :    11.710135
      px      :     3.803777
      py      :     3.964617
      dz2     :     0.010110  d :     0.051878
      dxz     :     0.010732
      dyz     :     0.009888
      dx2y2   :     0.010867
      dxy     :     0.010281
  3 Cls       :     5.870270  s :     5.870270
      pz      :     3.961177  p :    11.612813
      px      :     3.693341
      py      :     3.958294
      dz2     :     0.011330  d :     0.058063
      dxz     :     0.011233
      dyz     :     0.009893
      dx2y2   :     0.014262
      dxy     :     0.011345
  4 H s       :     0.823350  s :     0.823350
  5 H s       :     0.876547  s :     0.876547
  6 H s       :     0.888540  s :     0.888540
  7 C s       :     2.886560  s :     2.886560
      pz      :     1.115161  p :     3.312749
      px      :     1.106642
      py      :     1.090946
      dz2     :     0.026495  d :     0.120171
      dxz     :     0.015222
      dyz     :     0.028359
      dx2y2   :     0.035190
      dxy     :     0.014905
  8 H s       :     0.868423  s :     0.868423
  9 H s       :     0.880924  s :     0.880924
 10 H s       :     0.873172  s :     0.873172
 11 N s       :     3.190753  s :     3.190753
      pz      :     1.632645  p :     4.106692
      px      :     1.258873
      py      :     1.215175
      dz2     :     0.009422  d :     0.069842
      dxz     :     0.013346
      dyz     :     0.015054
      dx2y2   :     0.009557
      dxy     :     0.022463
 12 H s       :     0.802418  s :     0.802418
 13 H s       :     0.794751  s :     0.794751


                      *****************************
                      * MAYER POPULATION ANALYSIS *
                      *****************************

  NA   - Mulliken gross atomic population
  ZA   - Total nuclear charge
  QA   - Mulliken gross atomic charge
  VA   - Mayer's total valence
  BVA  - Mayer's bonded valence
  FA   - Mayer's free valence

  ATOM       NA         ZA         QA         VA         BVA        FA
  0 C      6.1173     6.0000    -0.1173     3.8130     3.5229     0.2901
  1 C      6.2234     6.0000    -0.2234     3.7214     3.4077     0.3137
  2 Cl    17.7524    17.0000    -0.7524     0.7515     0.3456     0.4059
  3 Cl    17.6214    17.0000    -0.6214     0.9073     0.5126     0.3947
  4 H      0.7086     1.0000     0.2914     0.8636     0.8097     0.0538
  5 H      0.7546     1.0000     0.2454     0.9093     0.8735     0.0358
  6 H      0.7733     1.0000     0.2267     0.9229     0.8842     0.0387
  7 C      6.6610     6.0000    -0.6610     3.8064     3.5359     0.2704
  8 H      0.7421     1.0000     0.2579     0.9024     0.8662     0.0361
  9 H      0.7773     1.0000     0.2227     0.9149     0.8783     0.0366
 10 H      0.7672     1.0000     0.2328     0.9046     0.8661     0.0384
 11 N      7.7922     7.0000    -0.7922     2.8696     2.5391     0.3305
 12 H      0.6696     1.0000     0.3304     0.8600     0.8206     0.0394
 13 H      0.6398     1.0000     0.3602     0.8499     0.8113     0.0387

  Mayer bond orders larger than 0.1
B(  0-C ,  1-C ) :   1.3418 B(  0-C ,  2-Cl) :   0.2883 B(  0-C ,  5-H ) :   0.8880 
B(  0-C ,  7-C ) :   0.9231 B(  1-C ,  4-H ) :   0.3495 B(  1-C ,  6-H ) :   0.8956 
B(  1-C , 11-N ) :   0.9047 B(  3-Cl,  4-H ) :   0.4191 B(  7-C ,  8-H ) :   0.8877 
B(  7-C ,  9-H ) :   0.9048 B(  7-C , 10-H ) :   0.8740 B( 11-N , 12-H ) :   0.8133 
B( 11-N , 13-H ) :   0.7985 


----------------------------------
MP2 DERIVATIVE INTEGRAL GENERATION
----------------------------------


Input Wavefunction Amplitudes       ... run.mp2tsaa.tmp.proc0
Input Correlated Electron Density   ... run.pmp2re
Input Energy Weighted Density       ... run.wmp2.tmp
Input SCF Electron Density          ... run.scfp.tmp

One-Electron Terms    ...
                        ... One-Electron Terms done
Prescreening matrices              ... done

Batch handling in the gradient evaluation:
Memory available                      ... 5000.0 MB
Memory per occupied orbital in Q2     ...    5.7 MB
Memory per occupied orbital in Q3     ...    0.0 MB
Total memory requirement per |i>      ...    5.7 MB
Max. Number of orbitals possible      ...    875
Number of orbitals treated per batch  ...     34
Number of batches to be done          ...      1
Batch   0: i=    0 ...    33

---------------------------------------
MP2 TOTAL ENERGY:    -1092.818227142 Eh
---------------------------------------

-----------------------------------
NORM OF THE MP2 GRADIENT:  0.007104
-----------------------------------

-------------------------   --------------------
FINAL SINGLE POINT ENERGY     -1092.818227142071
-------------------------   --------------------

------------------------------------------------------------------------------
                         ORCA GEOMETRY RELAXATION STEP
------------------------------------------------------------------------------

Reading the OPT-File                    .... done
Getting information on internals        .... done
Copying old internal coords+grads       .... done
Making the new internal coordinates     .... (new redundants).... done
Validating the new internal coordinates .... (new redundants).... done
Calculating the B-matrix                .... done
Calculating the G,G- and P matrices     .... done
Transforming gradient to internals      .... done
Projecting the internal gradient        .... done
Number of atoms                         ....  14
Number of internal coordinates          .... 103
Current Energy                          .... -1092.818227142 Eh
Current gradient norm                   ....     0.007104200 Eh/bohr
Maximum allowed component of the step   ....  0.010
Current trust radius                    ....  0.100
Evaluating the initial hessian          .... done
Projecting the Hessian                  .... done
Forming the augmented Hessian           .... done
Diagonalizing the augmented Hessian     .... done
Last element of RFO vector              ....  0.999947847
Lowest eigenvalues of augmented Hessian:
 -0.000029438  0.100000007  0.100055153  0.104282343  0.104738888
Length of the computed step             ....  0.010213457
The final length of the internal step   ....  0.010213457
Converting the step to cartesian space:
 Initial RMS(Int)=    0.0010063618
Transforming coordinates:
 Iter   0:  RMS(Cart)=    0.0010911189 RMS(Int)=    0.0010061118
 Iter   1:  RMS(Cart)=    0.0000011666 RMS(Int)=    0.0000009065
 Iter   2:  RMS(Cart)=    0.0000000016 RMS(Int)=    0.0000000026
done
Storing new coordinates                 .... done

                                .--------------------.
          ----------------------|Geometry convergence|-------------------------
          Item                value                   Tolerance       Converged
          ---------------------------------------------------------------------
          RMS gradient        0.0003293553            0.0005000000      YES
          MAX gradient        0.0015125993            0.0020000000      YES
          RMS step            0.0010063618            0.0070000000      YES
          MAX step            0.0039523833            0.0100000000      YES
          ........................................................
          Max(Bonds)      0.0021      Max(Angles)    0.08
          Max(Dihed)        0.14      Max(Improp)    0.00
          ---------------------------------------------------------------------

                    ***********************HURRAY********************
                    ***        THE OPTIMIZATION HAS CONVERGED     ***
                    *************************************************


    ---------------------------------------------------------------------------
                         Redundant Internal Coordinates

                          --- Optimized Parameters ---  
                            (Angstroem and degrees)

        Definition                    OldVal   dE/dq     Step     FinalVal
    ----------------------------------------------------------------------------
     1. B(C   1,C   0)                1.3762 -0.001303  0.0015    1.3777   
     2. B(Cl  2,C   1)                3.2594  0.000601 -0.0006    3.2588   
     3. B(Cl  2,C   0)                2.5760  0.001444 -0.0021    2.5739   
     4. B(H   4,Cl  3)                1.6118 -0.001513  0.0016    1.6134   
     5. B(H   4,C   1)                1.3727  0.001145 -0.0012    1.3715   
     6. B(H   5,Cl  2)                2.6292  0.000820 -0.0005    2.6287   
     7. B(H   5,C   0)                1.0849 -0.000204  0.0001    1.0850   
     8. B(H   6,C   1)                1.0916  0.000039 -0.0000    1.0916   
     9. B(C   7,C   0)                1.4900  0.000012 -0.0001    1.4899   
    10. B(C   7,Cl  2)                3.2045  0.000906 -0.0010    3.2035   
    11. B(H   8,C   7)                1.0884 -0.000009  0.0000    1.0884   
    12. B(H   8,Cl  2)                2.9681  0.000121  0.0001    2.9682   
    13. B(H   9,C   7)                1.0909  0.000022 -0.0000    1.0908   
    14. B(H  10,C   7)                1.0981  0.000072 -0.0001    1.0980   
    15. B(N  11,C   1)                1.4395 -0.000178  0.0002    1.4397   
    16. B(H  12,N  11)                1.0132  0.000011 -0.0000    1.0131   
    17. B(H  13,N  11)                1.0156 -0.000019  0.0000    1.0157   
    18. B(H  13,Cl  2)                2.8751 -0.000033  0.0000    2.8751   
    19. A(H   5,C   0,C   7)          117.01  0.000031   -0.01    117.00   
    20. A(C   1,C   0,Cl  2)          107.18  0.000068    0.02    107.20   
    21. A(C   1,C   0,H   5)          116.47  0.000009    0.00    116.47   
    22. A(Cl  2,C   0,C   7)          100.61 -0.000173    0.05    100.66   
    23. A(C   1,C   0,C   7)          122.51  0.000083   -0.04    122.47   
    24. A(Cl  2,C   0,H   5)           80.74 -0.000225    0.07     80.81   
    25. A(Cl  2,C   1,H   6)          108.36  0.000118   -0.06    108.30   
    26. A(Cl  2,C   1,H   4)          137.92  0.000040    0.00    137.92   
    27. A(C   0,C   1,H   4)           90.70 -0.000155    0.04     90.74   
    28. A(C   0,C   1,Cl  2)           49.03  0.000205   -0.05     48.98   
    29. A(H   4,C   1,H   6)          100.54 -0.000098    0.04    100.59   
    30. A(Cl  2,C   1,N  11)           89.82 -0.000051   -0.00     89.82   
    31. A(C   0,C   1,N  11)          120.84  0.000076   -0.03    120.81   
    32. A(H   4,C   1,N  11)          105.05  0.000013    0.02    105.06   
    33. A(C   0,C   1,H   6)          117.26  0.000089   -0.03    117.23   
    34. A(H   6,C   1,N  11)          115.10 -0.000038    0.01    115.11   
    35. A(C   0,Cl  2,C   1)           23.79 -0.000273    0.03     23.82   
    36. A(C   0,Cl  2,C   7)           27.19 -0.000058    0.00     27.20   
    37. A(C   1,Cl  2,C   7)           45.76 -0.000283    0.03     45.78   
    38. A(C   1,H   4,Cl  3)          167.08 -0.000265    0.08    167.16   
    39. A(Cl  2,C   7,H   9)           97.56 -0.000048    0.02     97.58   
    40. A(Cl  2,C   7,H   8)           67.73 -0.000356    0.05     67.78   
    41. A(C   0,C   7,Cl  2)           52.20  0.000231   -0.05     52.15   
    42. A(H   9,C   7,H  10)          108.76 -0.000057    0.02    108.78   
    43. A(H   8,C   7,H  10)          109.03  0.000190   -0.01    109.02   
    44. A(C   0,C   7,H  10)          109.03  0.000009   -0.04    108.99   
    45. A(H   8,C   7,H   9)          108.88  0.000022    0.00    108.88   
    46. A(C   0,C   7,H   9)          111.15 -0.000047    0.01    111.16   
    47. A(C   0,C   7,H   8)          109.96 -0.000111    0.01    109.97   
    48. A(Cl  2,C   7,H  10)          152.62  0.000151   -0.06    152.56   
    49. A(H  12,N  11,H  13)          109.28 -0.000014    0.01    109.29   
    50. A(C   1,N  11,H  13)          107.09 -0.000157    0.05    107.14   
    51. A(C   1,N  11,H  12)          110.72  0.000116   -0.03    110.69   
    52. D(Cl  2,C   1,C   0,C   7)    115.19 -0.000123    0.05    115.24   
    53. D(H   6,C   1,C   0,C   7)     23.93 -0.000315    0.14     24.07   
    54. D(N  11,C   1,C   0,Cl  2)     58.45  0.000056   -0.02     58.43   
    55. D(H   6,C   1,C   0,Cl  2)    -91.25 -0.000192    0.08    -91.17   
    56. D(H   6,C   1,C   0,H   5)   -179.29  0.000031   -0.01   -179.30   
    57. D(N  11,C   1,C   0,H   5)    -29.58  0.000280   -0.12    -29.70   
    58. D(H   4,C   1,C   0,Cl  2)    166.50 -0.000010    0.02    166.51   
    59. D(Cl  2,C   1,C   0,H   5)    -88.03  0.000224   -0.09    -88.13   
    60. D(N  11,C   1,C   0,C   7)    173.64 -0.000066    0.03    173.67   
    61. D(H   4,C   1,C   0,H   5)     78.46  0.000214   -0.08     78.38   
    62. D(H   4,C   1,C   0,C   7)    -78.32 -0.000133    0.07    -78.25   
    63. D(C   7,Cl  2,C   0,C   1)    129.07  0.000034   -0.01    129.06   
    64. D(C   1,Cl  2,C   0,H   5)    114.98 -0.000052    0.02    115.00   
    65. D(C   7,Cl  2,C   0,H   5)   -115.95 -0.000018    0.01   -115.94   
    66. D(C   7,Cl  2,C   1,N  11)   -162.66 -0.000088    0.01   -162.65   
    67. D(C   1,Cl  2,C   0,C   7)   -129.07 -0.000034    0.01   -129.06   
    68. D(C   7,Cl  2,C   1,H   4)    -50.08 -0.000110    0.03    -50.05   
    69. D(C   0,Cl  2,C   1,N  11)   -132.97 -0.000011    0.00   -132.96   
    70. D(C   7,Cl  2,C   1,H   6)     80.86 -0.000048    0.02     80.87   
    71. D(C   0,Cl  2,C   1,H   6)    110.55  0.000029    0.01    110.55   
    72. D(C   0,Cl  2,C   1,H   4)    -20.39 -0.000033    0.02    -20.37   
    73. D(C   7,Cl  2,C   1,C   0)    -29.69 -0.000077    0.01    -29.68   
    74. D(Cl  3,H   4,C   1,Cl  2)   -137.06  0.000045   -0.01   -137.08   
    75. D(Cl  3,H   4,C   1,N  11)    -30.03  0.000004   -0.00    -30.03   
    76. D(Cl  3,H   4,C   1,H   6)     89.77 -0.000074    0.03     89.80   
    77. D(Cl  3,H   4,C   1,C   0)   -152.32 -0.000027    0.01   -152.30   
    78. D(H   9,C   7,C   0,C   1)    -35.38  0.000093   -0.05    -35.43   
    79. D(H   8,C   7,C   0,Cl  2)    -37.61  0.000162   -0.02    -37.64   
    80. D(H   8,C   7,C   0,H   5)     47.32 -0.000174    0.08     47.40   
    81. D(H   9,C   7,C   0,H   5)    167.95 -0.000250    0.10    168.05   
    82. D(H   8,C   7,C   0,C   1)   -156.02  0.000170   -0.06   -156.08   
    83. D(H  10,C   7,Cl  2,C   1)     79.01  0.000177   -0.09     78.92   
    84. D(H   9,C   7,Cl  2,C   1)    -85.03 -0.000123    0.02    -85.01   
    85. D(H   9,C   7,Cl  2,C   0)   -110.95  0.000058   -0.01   -110.96   
    86. D(H   8,C   7,Cl  2,C   1)    167.61 -0.000162    0.02    167.63   
    87. D(H   8,C   7,Cl  2,C   0)    141.69  0.000019   -0.01    141.68   
    88. D(C   0,C   7,Cl  2,C   1)     25.92 -0.000181    0.03     25.95   
    89. D(Cl  2,C   7,C   0,H   5)     84.93 -0.000336    0.11     85.04   
    90. D(Cl  2,C   7,C   0,C   1)   -118.41  0.000008   -0.04   -118.44   
    91. D(H  10,C   7,C   0,Cl  2)   -157.11 -0.000008    0.01   -157.10   
    92. D(H  10,C   7,C   0,H   5)    -72.18 -0.000344    0.11    -72.06   
    93. D(H  10,C   7,Cl  2,C   0)     53.09  0.000357   -0.12     52.97   
    94. D(H  10,C   7,C   0,C   1)     84.49 -0.000001   -0.03     84.46   
    95. D(H   9,C   7,C   0,Cl  2)     83.02  0.000085   -0.01     83.01   
    96. D(H  13,N  11,C   1,Cl  2)      6.64  0.000061   -0.01      6.63   
    97. D(H  13,N  11,C   1,H   6)    116.91  0.000161   -0.08    116.83   
    98. D(H  13,N  11,C   1,H   4)   -133.51  0.000035   -0.02   -133.52   
    99. D(H  13,N  11,C   1,C   0)    -33.41 -0.000118    0.04    -33.38   
   100. D(H  12,N  11,C   1,Cl  2)    125.69  0.000015    0.01    125.70   
   101. D(H  12,N  11,C   1,H   6)   -124.04  0.000115   -0.06   -124.10   
   102. D(H  12,N  11,C   1,H   4)    -14.45 -0.000012    0.01    -14.45   
   103. D(H  12,N  11,C   1,C   0)     85.64 -0.000164    0.06     85.70   
    ----------------------------------------------------------------------------
                 *******************************************************
                 *** FINAL ENERGY EVALUATION AT THE STATIONARY POINT ***
                 ***               (AFTER    1 CYCLES)               ***
                 *******************************************************
---------------------------------
CARTESIAN COORDINATES (ANGSTROEM)
---------------------------------
  C     -0.262695   -0.124388   -0.183614
  C     -0.236982   -0.093265    1.193523
  Cl     2.165491    0.137644   -0.996117
  Cl    -3.128331    0.436719    1.591414
  H     -1.597749    0.073442    1.232998
  H     -0.350871    0.832460   -0.687467
  H     -0.136733   -1.048121    1.712944
  C     -0.680350   -1.332610   -0.948749
  H     -0.245605   -1.309481   -1.946297
  H     -0.361726   -2.246691   -0.445890
  H     -1.774923   -1.339963   -1.035417
  N      0.299746    1.043374    1.895467
  H     -0.408817    1.757614    2.014846
  H      1.057615    1.413914    1.329870

----------------------------
CARTESIAN COORDINATES (A.U.)
----------------------------
  NO LB      ZA    FRAG     MASS         X           Y           Z
   0 C     6.0000    0    12.011   -0.496422   -0.235060   -0.346980
   1 C     6.0000    0    12.011   -0.447831   -0.176245    2.255432
   2 Cl   17.0000    0    35.453    4.092185    0.260110   -1.882389
[...]
      dxy     :     0.010153
  3 Cls       :     5.973083  s :     5.973083
      pz      :     3.962872  p :    11.658692
      px      :     3.733467
      py      :     3.962353
      dz2     :     0.010994  d :     0.056082
      dxz     :     0.010957
      dyz     :     0.009869
      dx2y2   :     0.013286
      dxy     :     0.010977
  4 H s       :     0.673789  s :     0.673789
  5 H s       :     0.732302  s :     0.732302
  6 H s       :     0.773727  s :     0.773727
  7 C s       :     3.341777  s :     3.341777
      pz      :     1.110762  p :     3.192904
      px      :     1.090652
      py      :     0.991490
      dz2     :     0.020216  d :     0.088741
      dxz     :     0.012712
      dyz     :     0.019873
      dx2y2   :     0.025706
      dxy     :     0.010234
  8 H s       :     0.742000  s :     0.742000
  9 H s       :     0.778596  s :     0.778596
 10 H s       :     0.763800  s :     0.763800
 11 N s       :     3.683411  s :     3.683411
      pz      :     1.690750  p :     4.099332
      px      :     1.244759
      py      :     1.163822
      dz2     :     0.008344  d :     0.056219
      dxz     :     0.012140
      dyz     :     0.011171
      dx2y2   :     0.006615
      dxy     :     0.017948
 12 H s       :     0.661374  s :     0.661374
 13 H s       :     0.631858  s :     0.631858


                     *******************************
                     * LOEWDIN POPULATION ANALYSIS *
                     *******************************

----------------------
LOEWDIN ATOMIC CHARGES
----------------------
   0 C :    0.057062
   1 C :   -0.245210
   2 Cl:   -0.741344
   3 Cl:   -0.595635
   4 H :    0.184246
   5 H :    0.130487
   6 H :    0.105201
   7 C :   -0.286819
   8 H :    0.127094
   9 H :    0.114645
  10 H :    0.124454
  11 N :   -0.371243
  12 H :    0.195040
  13 H :    0.202022

-------------------------------
LOEWDIN REDUCED ORBITAL CHARGES
-------------------------------
  0 C s       :     2.894000  s :     2.894000
      pz      :     1.107912  p :     2.872014
      px      :     0.667336
      py      :     1.096765
      dz2     :     0.044048  d :     0.176924
      dxz     :     0.037055
      dyz     :     0.053397
      dx2y2   :     0.027081
      dxy     :     0.015343
  1 C s       :     2.843927  s :     2.843927
      pz      :     1.061046  p :     3.183787
      px      :     1.100788
      py      :     1.021952
      dz2     :     0.065778  d :     0.217497
      dxz     :     0.023830
      dyz     :     0.063871
      dx2y2   :     0.041235
      dxy     :     0.022783
  2 Cls       :     5.939132  s :     5.939132
      pz      :     3.948951  p :    11.750474
      px      :     3.834535
      py      :     3.966988
      dz2     :     0.010104  d :     0.051738
      dxz     :     0.010677
      dyz     :     0.009882
      dx2y2   :     0.010803
      dxy     :     0.010271
  3 Cls       :     5.870169  s :     5.870169
      pz      :     3.963952  p :    11.667887
      px      :     3.741074
      py      :     3.962861
      dz2     :     0.011237  d :     0.057579
      dxz     :     0.011188
      dyz     :     0.009891
      dx2y2   :     0.014005
      dxy     :     0.011257
  4 H s       :     0.815754  s :     0.815754
  5 H s       :     0.869513  s :     0.869513
  6 H s       :     0.894799  s :     0.894799
  7 C s       :     2.883628  s :     2.883628
      pz      :     1.101769  p :     3.272974
      px      :     1.098216
      py      :     1.072989
      dz2     :     0.028417  d :     0.130217
      dxz     :     0.016315
      dyz     :     0.031990
      dx2y2   :     0.038364
      dxy     :     0.015131
  8 H s       :     0.872906  s :     0.872906
  9 H s       :     0.885355  s :     0.885355
 10 H s       :     0.875546  s :     0.875546
 11 N s       :     3.191175  s :     3.191175
      pz      :     1.639380  p :     4.106501
      px      :     1.255406
      py      :     1.211715
      dz2     :     0.009372  d :     0.073567
      dxz     :     0.014093
      dyz     :     0.015731
      dx2y2   :     0.010044
      dxy     :     0.024327
 12 H s       :     0.804960  s :     0.804960
 13 H s       :     0.797978  s :     0.797978


                      *****************************
                      * MAYER POPULATION ANALYSIS *
                      *****************************

  NA   - Mulliken gross atomic population
  ZA   - Total nuclear charge
  QA   - Mulliken gross atomic charge
  VA   - Mayer's total valence
  BVA  - Mayer's bonded valence
  FA   - Mayer's free valence

  ATOM       NA         ZA         QA         VA         BVA        FA
  0 C      6.0601     6.0000    -0.0601     3.6805     3.3540     0.3265
  1 C      6.2295     6.0000    -0.2295     3.6074     3.2753     0.3321
  2 Cl    17.8026    17.0000    -0.8026     0.6709     0.2542     0.4168
  3 Cl    17.6879    17.0000    -0.6879     0.8120     0.4053     0.4067
  4 H      0.6738     1.0000     0.3262     0.8443     0.7878     0.0565
  5 H      0.7323     1.0000     0.2677     0.8951     0.8578     0.0373
  6 H      0.7737     1.0000     0.2263     0.9240     0.8842     0.0398
  7 C      6.6234     6.0000    -0.6234     3.7822     3.5077     0.2744
  8 H      0.7420     1.0000     0.2580     0.9012     0.8642     0.0370
  9 H      0.7786     1.0000     0.2214     0.9171     0.8797     0.0373
 10 H      0.7638     1.0000     0.2362     0.9044     0.8647     0.0397
 11 N      7.8390     7.0000    -0.8390     2.7968     2.4607     0.3360
 12 H      0.6614     1.0000     0.3386     0.8543     0.8144     0.0400
 13 H      0.6319     1.0000     0.3681     0.8393     0.7998     0.0395

  Mayer bond orders larger than 0.1
B(  0-C ,  1-C ) :   1.2645 B(  0-C ,  2-Cl) :   0.2695 B(  0-C ,  5-H ) :   0.8834 
B(  0-C ,  7-C ) :   0.9035 B(  1-C ,  4-H ) :   0.3860 B(  1-C ,  6-H ) :   0.9078 
B(  1-C , 11-N ) :   0.8516 B(  3-Cl,  4-H ) :   0.3682 B(  7-C ,  8-H ) :   0.8928 
B(  7-C ,  9-H ) :   0.9096 B(  7-C , 10-H ) :   0.8783 B( 11-N , 12-H ) :   0.8143 
B( 11-N , 13-H ) :   0.7995 


                *******************************************
                * RELAXED MP2 DENSITY POPULATION ANALYSIS *
                *******************************************

------------------------------------------------------------------------------
                           ORCA POPULATION ANALYSIS
------------------------------------------------------------------------------
Input electron density              ... run.pmp2re
BaseName (.gbw .S,...)              ... run

                    ********************************
                    * MULLIKEN POPULATION ANALYSIS *
                    ********************************

-----------------------
MULLIKEN ATOMIC CHARGES
-----------------------
   0 C :   -0.117599
   1 C :   -0.223854
   2 Cl:   -0.750442
   3 Cl:   -0.622877
   4 H :    0.291371
   5 H :    0.245473
   6 H :    0.226673
   7 C :   -0.660808
   8 H :    0.257816
   9 H :    0.222786
  10 H :    0.233151
  11 N :   -0.792136
  12 H :    0.330372
  13 H :    0.360075
Sum of atomic charges:   -1.0000000

--------------------------------
MULLIKEN REDUCED ORBITAL CHARGES
--------------------------------
  0 C s       :     3.305946  s :     3.305946
      pz      :     0.925508  p :     2.721050
      px      :     0.776341
      py      :     1.019201
      dz2     :     0.020402  d :     0.090603
      dxz     :     0.018126
      dyz     :     0.026901
      dx2y2   :     0.015874
      dxy     :     0.009300
  1 C s       :     3.210897  s :     3.210897
      pz      :     0.882277  p :     2.904259
      px      :     1.035444
      py      :     0.986537
      dz2     :     0.027097  d :     0.108698
      dxz     :     0.016026
      dyz     :     0.032350
      dx2y2   :     0.021346
      dxy     :     0.011879
  2 Cls       :     5.979429  s :     5.979429
      pz      :     3.946518  p :    11.720096
      px      :     3.805182
      py      :     3.968396
      dz2     :     0.010015  d :     0.050917
      dxz     :     0.010412
      dyz     :     0.009830
      dx2y2   :     0.010500
      dxy     :     0.010161
  3 Cls       :     5.968212  s :     5.968212
      pz      :     3.959074  p :    11.598152
      px      :     3.682795
      py      :     3.956283
      dz2     :     0.011084  d :     0.056512
      dxz     :     0.010981
      dyz     :     0.009867
      dx2y2   :     0.013538
      dxy     :     0.011043
  4 H s       :     0.708629  s :     0.708629
  5 H s       :     0.754527  s :     0.754527
  6 H s       :     0.773327  s :     0.773327
  7 C s       :     3.329725  s :     3.329725
      pz      :     1.132711  p :     3.253059
      px      :     1.098637
      py      :     1.021710
      dz2     :     0.018063  d :     0.078024
      dxz     :     0.011356
      dyz     :     0.016650
      dx2y2   :     0.022366
      dxy     :     0.009588
  8 H s       :     0.742184  s :     0.742184
  9 H s       :     0.777214  s :     0.777214
 10 H s       :     0.766849  s :     0.766849
 11 N s       :     3.655634  s :     3.655634
      pz      :     1.680602  p :     4.084359
      px      :     1.242694
      py      :     1.161063
      dz2     :     0.008325  d :     0.052143
      dxz     :     0.011323
      dyz     :     0.010372
      dx2y2   :     0.006175
      dxy     :     0.015948
 12 H s       :     0.669628  s :     0.669628
 13 H s       :     0.639925  s :     0.639925


                     *******************************
                     * LOEWDIN POPULATION ANALYSIS *
                     *******************************

----------------------
LOEWDIN ATOMIC CHARGES
----------------------
   0 C :   -0.025952
   1 C :   -0.234642
   2 Cl:   -0.701300
   3 Cl:   -0.542944
   4 H :    0.176544
   5 H :    0.123457
   6 H :    0.111426
   7 C :   -0.319556
   8 H :    0.131528
   9 H :    0.119101
  10 H :    0.127018
  11 N :   -0.367410
  12 H :    0.197593
  13 H :    0.205135

-------------------------------
LOEWDIN REDUCED ORBITAL CHARGES
-------------------------------
  0 C s       :     2.887937  s :     2.887937
      pz      :     1.094342  p :     2.968811
      px      :     0.788873
      py      :     1.085597
      dz2     :     0.043919  d :     0.169203
      dxz     :     0.033067
      dyz     :     0.051536
      dx2y2   :     0.025291
      dxy     :     0.015391
  1 C s       :     2.850775  s :     2.850775
      pz      :     1.083100  p :     3.172929
      px      :     1.062227
      py      :     1.027603
      dz2     :     0.060728  d :     0.210937
      dxz     :     0.026345
      dyz     :     0.062837
      dx2y2   :     0.038921
      dxy     :     0.022106
  2 Cls       :     5.941003  s :     5.941003
      pz      :     3.941589  p :    11.708400
      px      :     3.802220
      py      :     3.964590
      dz2     :     0.010113  d :     0.051897
      dxz     :     0.010737
      dyz     :     0.009889
      dx2y2   :     0.010874
      dxy     :     0.010284
  3 Cls       :     5.870653  s :     5.870653
      pz      :     3.961386  p :    11.614278
      px      :     3.694409
      py      :     3.958483
      dz2     :     0.011325  d :     0.058012
      dxz     :     0.011217
      dyz     :     0.009890
      dx2y2   :     0.014248
      dxy     :     0.011332
  4 H s       :     0.823456  s :     0.823456
  5 H s       :     0.876543  s :     0.876543
  6 H s       :     0.888574  s :     0.888574
  7 C s       :     2.886550  s :     2.886550
      pz      :     1.115103  p :     3.312822
      px      :     1.106717
      py      :     1.091002
      dz2     :     0.026507  d :     0.120185
      dxz     :     0.015207
      dyz     :     0.028366
      dx2y2   :     0.035199
      dxy     :     0.014905
  8 H s       :     0.868472  s :     0.868472
  9 H s       :     0.880899  s :     0.880899
 10 H s       :     0.872982  s :     0.872982
 11 N s       :     3.190789  s :     3.190789
      pz      :     1.632856  p :     4.106792
      px      :     1.258741
      py      :     1.215194
      dz2     :     0.009416  d :     0.069830
      dxz     :     0.013338
      dyz     :     0.015044
      dx2y2   :     0.009558
      dxy     :     0.022473
 12 H s       :     0.802407  s :     0.802407
 13 H s       :     0.794865  s :     0.794865


                      *****************************
                      * MAYER POPULATION ANALYSIS *
                      *****************************

  NA   - Mulliken gross atomic population
  ZA   - Total nuclear charge
  QA   - Mulliken gross atomic charge
  VA   - Mayer's total valence
  BVA  - Mayer's bonded valence
  FA   - Mayer's free valence

  ATOM       NA         ZA         QA         VA         BVA        FA
  0 C      6.1176     6.0000    -0.1176     3.8125     3.5228     0.2897
  1 C      6.2239     6.0000    -0.2239     3.7206     3.4071     0.3135
  2 Cl    17.7504    17.0000    -0.7504     0.7543     0.3483     0.4060
  3 Cl    17.6229    17.0000    -0.6229     0.9056     0.5109     0.3946
  4 H      0.7086     1.0000     0.2914     0.8637     0.8099     0.0538
  5 H      0.7545     1.0000     0.2455     0.9092     0.8734     0.0358
  6 H      0.7733     1.0000     0.2267     0.9229     0.8842     0.0387
  7 C      6.6608     6.0000    -0.6608     3.8060     3.5356     0.2704
  8 H      0.7422     1.0000     0.2578     0.9024     0.8662     0.0361
  9 H      0.7772     1.0000     0.2228     0.9149     0.8783     0.0366
 10 H      0.7668     1.0000     0.2332     0.9045     0.8661     0.0384
 11 N      7.7921     7.0000    -0.7921     2.8697     2.5392     0.3305
 12 H      0.6696     1.0000     0.3304     0.8599     0.8206     0.0394
 13 H      0.6399     1.0000     0.3601     0.8499     0.8113     0.0387

  Mayer bond orders larger than 0.1
B(  0-C ,  1-C ) :   1.3393 B(  0-C ,  2-Cl) :   0.2909 B(  0-C ,  5-H ) :   0.8879 
B(  0-C ,  7-C ) :   0.9231 B(  1-C ,  4-H ) :   0.3515 B(  1-C ,  6-H ) :   0.8955 
B(  1-C , 11-N ) :   0.9046 B(  3-Cl,  4-H ) :   0.4174 B(  7-C ,  8-H ) :   0.8877 
B(  7-C ,  9-H ) :   0.9047 B(  7-C , 10-H ) :   0.8738 B( 11-N , 12-H ) :   0.8134 
B( 11-N , 13-H ) :   0.7986 


----------------------------------
MP2 DERIVATIVE INTEGRAL GENERATION
----------------------------------


Input Wavefunction Amplitudes       ... run.mp2tsaa.tmp.proc0
Input Correlated Electron Density   ... run.pmp2re
Input Energy Weighted Density       ... run.wmp2.tmp
Input SCF Electron Density          ... run.scfp.tmp

One-Electron Terms    ...
                        ... One-Electron Terms done
Prescreening matrices              ... done

Batch handling in the gradient evaluation:
Memory available                      ... 5000.0 MB
Memory per occupied orbital in Q2     ...    5.7 MB
Memory per occupied orbital in Q3     ...    0.0 MB
Total memory requirement per |i>      ...    5.7 MB
Max. Number of orbitals possible      ...    875
Number of orbitals treated per batch  ...     34
Number of batches to be done          ...      1
Batch   0: i=    0 ...    33

---------------------------------------
MP2 TOTAL ENERGY:    -1092.818255692 Eh
---------------------------------------

-----------------------------------
NORM OF THE MP2 GRADIENT:  0.007184
-----------------------------------

-------------------------   --------------------
FINAL SINGLE POINT ENERGY     -1092.818255692111
-------------------------   --------------------

                                *** OPTIMIZATION RUN DONE ***

                            ***************************************
                            *     ORCA property calculations      *
                            ***************************************

                                    ---------------------
                                    Active property flags
                                    ---------------------
   (+) Dipole Moment


------------------------------------------------------------------------------
                       ORCA ELECTRIC PROPERTIES CALCULATION
------------------------------------------------------------------------------

Dipole Moment Calculation                       ... on
Quadrupole Moment Calculation                   ... off
Polarizability Calculation                      ... off
GBWName                                         ... run.gbw
Electron density file                           ... run.scfp.tmp
The origin for moment calculation is the CENTER OF MASS  = (-0.702509,  0.212035  0.740927)

-------------
DIPOLE MOMENT
-------------
                                X             Y             Z
Electronic contribution:     -0.36192       2.60125       0.36395
Nuclear contribution   :     -0.49447      -3.05813      -0.63987
                        -----------------------------------------
Total Dipole Moment    :     -0.85639      -0.45689      -0.27592
                        -----------------------------------------
Magnitude (a.u.)       :      1.00910
Magnitude (Debye)      :      2.56493


                         *** MP2 UNRELAXED DENSITY ***

------------------------------------------------------------------------------
                       ORCA ELECTRIC PROPERTIES CALCULATION
------------------------------------------------------------------------------

Dipole Moment Calculation                       ... on
Quadrupole Moment Calculation                   ... off
Polarizability Calculation                      ... off
GBWName                                         ... run.gbw
Electron density file                           ... run.pmp2ur
The origin for moment calculation is the CENTER OF MASS  = (-0.702509,  0.212035  0.740927)

-------------
DIPOLE MOMENT
-------------
                                X             Y             Z
Electronic contribution:     -0.36034       2.61227       0.38927
Nuclear contribution   :     -0.49447      -3.05813      -0.63987
                        -----------------------------------------
Total Dipole Moment    :     -0.85482      -0.44586      -0.25060
                        -----------------------------------------
Magnitude (a.u.)       :      0.99614
Magnitude (Debye)      :      2.53199


                           *** MP2 RELAXED DENSITY ***

------------------------------------------------------------------------------
                       ORCA ELECTRIC PROPERTIES CALCULATION
------------------------------------------------------------------------------

Dipole Moment Calculation                       ... on
Quadrupole Moment Calculation                   ... off
Polarizability Calculation                      ... off
GBWName                                         ... run.gbw
Electron density file                           ... run.pmp2re
The origin for moment calculation is the CENTER OF MASS  = (-0.702509,  0.212035  0.740927)

-------------
DIPOLE MOMENT
-------------
                                X             Y             Z
Electronic contribution:     -0.44413       2.72853       0.60266
Nuclear contribution   :     -0.49447      -3.05813      -0.63987
                        -----------------------------------------
Total Dipole Moment    :     -0.93861      -0.32961      -0.03721
                        -----------------------------------------
Magnitude (a.u.)       :      0.99549
Magnitude (Debye)      :      2.53034


Timings for individual modules:

Sum of individual times         ...      339.197 sec (=   5.653 min)
GTO integral calculation        ...        0.632 sec (=   0.011 min)   0.2 %
SCF iterations                  ...      139.197 sec (=   2.320 min)  41.0 %
MP2 module                      ...      199.282 sec (=   3.321 min)  58.8 %
Geometry relaxation             ...        0.086 sec (=   0.001 min)   0.0 %
                             ****ORCA TERMINATED NORMALLY****
TOTAL RUN TIME: 0 days 0 hours 5 minutes 39 seconds 638 msec
