
                                 *****************
                                 * O   R   C   A *
                                 *****************

           --- An Ab Initio, DFT and Semiempirical electronic structure package ---

                  #######################################################
                  #                        -***-                        #
                  #  Department of molecular theory and spectroscopy    #
                  #              Directorship: Frank Neese              #
                  # Max Planck Institute for Chemical Energy Conversion #
                  #                  D-45470 Muelheim/Ruhr              #
                  #                       Germany                       #
                  #                                                     #
                  #                  All rights reserved                #
                  #                        -***-                        #
                  #######################################################


                         Program Version 4.0.1.2 - RELEASE -


 With contributions from (in alphabetic order):
   Daniel Aravena         : Magnetic Properties
   Michael Atanasov       : Ab Initio Ligand Field Theory
   Ute Becker             : Parallelization
   Martin Brehm           : Molecular dynamics
   Dmytro Bykov           : SCF Hessian
   Vijay G. Chilkuri      : MRCI spin determinant printing
   Dipayan Datta          : RHF DLPNO-CCSD density
   Achintya Kumar Dutta   : EOM-CC, STEOM-CC
   Dmitry Ganyushin       : Spin-Orbit,Spin-Spin,Magnetic field MRCI
   Yang Guo               : DLPNO-NEVPT2, CIM, IAO-localization
   Andreas Hansen         : Spin unrestricted coupled pair/coupled cluster methods
   Lee Huntington         : MR-EOM, pCC
   Robert Izsak           : Overlap fitted RIJCOSX, COSX-SCS-MP3, EOM
   Christian Kollmar      : KDIIS, OOCD, Brueckner-CCSD(T), CCSD density
   Simone Kossmann        : Meta GGA functionals, TD-DFT gradient, OOMP2, MP2 Hessian
   Martin Krupicka        : AUTO-CI
   Dagmar Lenk            : GEPOL surface
   Dimitrios Liakos       : Extrapolation schemes; parallel MDCI
   Dimitrios Manganas     : ROCIS; embedding schemes
   Dimitrios Pantazis     : SARC Basis sets
   Taras Petrenko         : DFT Hessian,TD-DFT gradient, ASA, ECA, R-Raman, ABS, FL, XAS/XES, NRVS
   Peter Pinski           : DLPNO-MP2
   Christoph Reimann      : Effective Core Potentials
   Marius Retegan         : Local ZFS, SOC
   Christoph Riplinger    : Optimizer, TS searches, QM/MM, DLPNO-CCSD(T), (RO)-DLPNO pert. Triples
   Tobias Risthaus        : Range-separated hybrids, TD-DFT gradient, RPA, STAB
   Michael Roemelt        : Restricted open shell CIS
   Masaaki Saitow         : Open-shell DLPNO
   Barbara Sandhoefer     : DKH picture change effects
   Kantharuban Sivalingam : CASSCF convergence, NEVPT2, FIC-MRCI
   Georgi Stoychev        : AutoAux
   Boris Wezisla          : Elementary symmetry handling
   Frank Wennmohs         : Technical directorship


 We gratefully acknowledge several colleagues who have allowed us to
 interface, adapt or use parts of their codes:
   Stefan Grimme, W. Hujo, H. Kruse,             : VdW corrections, initial TS optimization,
                  C. Bannwarth                     DFT functionals, gCP, sTDA/sTD-DF
   Ed Valeev                                     : LibInt (2-el integral package), F12 methods
   Garnet Chan, S. Sharma, J. Yang, R. Olivares  : DMRG
   Ulf Ekstrom                                   : XCFun DFT Library
   Mihaly Kallay                                 : mrcc  (arbitrary order and MRCC methods)
   Andreas Klamt, Michael Diedenhofen            : otool_cosmo (COSMO solvation model)
   Jiri Pittner, Ondrej Demel                    : Mk-CCSD
   Frank Weinhold                                : gennbo (NPA and NBO analysis)
   Christopher J. Cramer and Donald G. Truhlar   : smd solvation model


 Your calculation uses the libint2 library for the computation of 2-el integrals
 For citations please refer to: http://libint.valeyev.net

 This ORCA versions uses:
   CBLAS   interface :  Fast vector & matrix operations
   LAPACKE interface :  Fast linear algebra routines
   SCALAPACK package :  Parallel linear algebra routines




*****************************************
The coordinations will be read from file: inp.xyz
*****************************************


Your calculation utilizes the basis: 6-311G(d)
   H, Li - Ne  : R. Krishnan, J. S. Binkley, R. Seeger and J. A. Pople, J. Chem. Phys. 72, 650 (1980).
   Na - Ar     : A. D. McLean and G. S. Chandler J. Chem. Phys. 72, 5639, (1980).
   K  - Ca     : J.-P. Blaudeau, M. P. McGrath, L. A. Curtiss and L. Radom, J. Chem. Phys. 107, 5016 (1997).
   Ga - Kr     : L. A. Curtiss, M. P. McGrath, J.-P. Blandeau, N. E. Davis, R. C. Binning and L. Radom, J. Chem. Phys. 103, 6104 (1995).
   Pol./Diff.
   H, Li - Cl  : T. Clark, J. Chandrasekhar and P. v. R. Schleyer, J. Comp. Chem. 4, 294 (1983).
   H - Ne      : M. J. Frisch, J. A. Pople and J. S. Binkley, J. Chem. Phys. 80, 3265 (1984).

================================================================================
                                        WARNINGS
                       Please study these warnings very carefully!
================================================================================

Warning: TCutStore was < 0. Adjusted to Thresh (uncritical)

WARNING: TCut can not be >=Thresh
  ===> : TCut is set to 0.01*Thresh

WARNING: Geometry Optimization
  ===> : Switching off AutoStart
         For restart on a previous wavefunction, please use MOREAD

WARNING: Post HF methods need fully converged wavefunctions
  ===> : Setting SCFConvForced true
         You can overwrite this default with %scf ConvForced false 


INFO   : the flag for use of LIBINT has been found!

================================================================================
                                       INPUT FILE
================================================================================
NAME = run.inp
|  1> ! MP2 6-311G(d) Opt NoFrozenCore ExtremeSCF
|  2> 
|  3> %geom
|  4>  MaxIter 1
|  5>  inhess unit
|  6>  MaxStep 0.01                              
|  7>  Convergence tight
|  8>  Trust 0.1
|  9> end
| 10> 
| 11> %mp2 MaxCore 5000
| 12> end
| 13> 
| 14> *xyzfile -1 1 inp.xyz
| 15> 
| 16>                          ****END OF INPUT****
================================================================================

                       *****************************
                       * Geometry Optimization Run *
                       *****************************

Geometry optimization settings:
Update method            Update   .... BFGS
Choice of coordinates    CoordSys .... Redundant Internals
Initial Hessian          InHess   .... Unit Matrix

Convergence Tolerances:
Energy Change            TolE     ....  3.0000e-05 Eh
Max. Gradient            TolMAXG  ....  2.0000e-03 Eh/bohr
RMS Gradient             TolRMSG  ....  5.0000e-04 Eh/bohr
Max. Displacement        TolMAXD  ....  1.0000e-02 bohr
RMS Displacement         TolRMSD  ....  7.0000e-03 bohr

------------------------------------------------------------------------------
                        ORCA OPTIMIZATION COORDINATE SETUP
------------------------------------------------------------------------------

The optimization will be done in new redundant internal coordinates
Making redundant internal coordinates   ...  (new redundants) done
Evaluating the initial hessian          ... done
Evaluating the coordinates              ...  done
Calculating the B-matrix                .... done
Calculating the G-matrix                .... done
Diagonalizing the G-matrix              .... done
The first mode is                       ....   67
The number of degrees of freedom        ....   36

    -----------------------------------------------------------------
                    Redundant Internal Coordinates


    -----------------------------------------------------------------
         Definition                    Initial Value    Approx d2E/dq
    -----------------------------------------------------------------
      1. B(C   1,C   0)                  1.3736         0.500000   
      2. B(Cl  2,C   1)                  3.2583         0.500000   
      3. B(Cl  2,C   0)                  2.5809         0.500000   
      4. B(H   4,Cl  3)                  1.5835         0.500000   
      5. B(H   4,C   1)                  1.4037         0.500000   
      6. B(H   5,Cl  2)                  2.6276         0.500000   
      7. B(H   5,C   0)                  1.0848         0.500000   
      8. B(H   6,C   1)                  1.0915         0.500000   
      9. B(C   7,C   0)                  1.4903         0.500000   
     10. B(C   7,Cl  2)                  3.2062         0.500000   
     11. B(H   8,C   7)                  1.0884         0.500000   
     12. B(H   8,Cl  2)                  2.9665         0.500000   
     13. B(H   9,C   7)                  1.0910         0.500000   
     14. B(H  10,C   7)                  1.0981         0.500000   
     15. B(N  11,C   1)                  1.4392         0.500000   
     16. B(H  12,N  11)                  1.0132         0.500000   
     17. B(H  13,N  11)                  1.0158         0.500000   
     18. B(H  13,Cl  2)                  2.8754         0.500000   
     19. A(H   5,C   0,C   7)          117.0231         0.200000   
     20. A(C   1,C   0,Cl  2)          106.9611         0.200000   
     21. A(C   1,C   0,H   5)          116.5886         0.200000   
     22. A(Cl  2,C   0,C   7)          100.4671         0.200000   
     23. A(C   1,C   0,C   7)          122.6456         0.200000   
     24. A(Cl  2,C   0,H   5)           80.4027         0.200000   
     25. A(Cl  2,C   1,H   6)          108.7456         0.200000   
     26. A(Cl  2,C   1,H   4)          137.9161         0.200000   
     27. A(C   0,C   1,H   4)           90.5039         0.200000   
     28. A(C   0,C   1,Cl  2)           49.2575         0.200000   
     29. A(H   4,C   1,H   6)          100.2453         0.200000   
     30. A(Cl  2,C   1,N  11)           89.9169         0.200000   
     31. A(C   0,C   1,N  11)          120.9684         0.200000   
     32. A(H   4,C   1,N  11)          104.8359         0.200000   
     33. A(C   0,C   1,H   6)          117.4398         0.200000   
     34. A(H   6,C   1,N  11)          115.1550         0.200000   
     35. A(C   0,Cl  2,C   1)           23.7814         0.200000   
     36. A(C   0,Cl  2,C   7)           27.1991         0.200000   
     37. A(C   1,Cl  2,C   7)           45.7486         0.200000   
     38. A(C   1,H   4,Cl  3)          166.9837         0.200000   
     39. A(Cl  2,C   7,H   9)           97.5352         0.200000   
     40. A(Cl  2,C   7,H   8)           67.5602         0.200000   
     41. A(C   0,C   7,Cl  2)           52.3337         0.200000   
     42. A(H   9,C   7,H  10)          108.7387         0.200000   
     43. A(H   8,C   7,H  10)          109.0199         0.200000   
     44. A(C   0,C   7,H  10)          109.1292         0.200000   
     45. A(H   8,C   7,H   9)          108.8211         0.200000   
     46. A(C   0,C   7,H   9)          111.1309         0.200000   
     47. A(C   0,C   7,H   8)          109.9635         0.200000   
     48. A(Cl  2,C   7,H  10)          152.7240         0.200000   
     49. A(H  12,N  11,H  13)          109.2097         0.200000   
     50. A(C   1,N  11,H  13)          106.9741         0.200000   
     51. A(C   1,N  11,H  12)          110.8401         0.200000   
     52. D(Cl  2,C   1,C   0,C   7)    114.8951         0.100000   
     53. D(H   6,C   1,C   0,C   7)     23.1387         0.100000   
     54. D(N  11,C   1,C   0,Cl  2)     58.7225         0.100000   
     55. D(H   6,C   1,C   0,Cl  2)    -91.7564         0.100000   
     56. D(H   6,C   1,C   0,H   5)   -179.3340         0.100000   
     57. D(N  11,C   1,C   0,H   5)    -28.8551         0.100000   
     58. D(H   4,C   1,C   0,Cl  2)    166.4150         0.100000   
     59. D(Cl  2,C   1,C   0,H   5)    -87.5776         0.100000   
     60. D(N  11,C   1,C   0,C   7)    173.6175         0.100000   
     61. D(H   4,C   1,C   0,H   5)     78.8374         0.100000   
     62. D(H   4,C   1,C   0,C   7)    -78.6899         0.100000   
     63. D(C   7,Cl  2,C   0,C   1)    129.0399         0.100000   
     64. D(C   1,Cl  2,C   0,H   5)    115.0246         0.100000   
     65. D(C   7,Cl  2,C   0,H   5)   -115.9355         0.100000   
     66. D(C   7,Cl  2,C   1,N  11)   -162.5878         0.100000   
     67. D(C   1,Cl  2,C   0,C   7)   -129.0399         0.100000   
     68. D(C   7,Cl  2,C   1,H   4)    -50.2270         0.100000   
     69. D(C   0,Cl  2,C   1,N  11)   -132.8757         0.100000   
     70. D(C   7,Cl  2,C   1,H   6)     80.7720         0.100000   
     71. D(C   0,Cl  2,C   1,H   6)    110.4841         0.100000   
     72. D(C   0,Cl  2,C   1,H   4)    -20.5149         0.100000   
     73. D(C   7,Cl  2,C   1,C   0)    -29.7121         0.100000   
     74. D(Cl  3,H   4,C   1,Cl  2)   -137.5480         0.100000   
     75. D(Cl  3,H   4,C   1,N  11)    -30.6255         0.100000   
     76. D(Cl  3,H   4,C   1,H   6)     89.0264         0.100000   
     77. D(Cl  3,H   4,C   1,C   0)   -152.9464         0.100000   
     78. D(H   9,C   7,C   0,C   1)    -35.0131         0.100000   
     79. D(H   8,C   7,C   0,Cl  2)    -37.4907         0.100000   
     80. D(H   8,C   7,C   0,H   5)     46.9949         0.100000   
     81. D(H   9,C   7,C   0,H   5)    167.5506         0.100000   
     82. D(H   8,C   7,C   0,C   1)   -155.5688         0.100000   
     83. D(H  10,C   7,Cl  2,C   1)     79.5010         0.100000   
     84. D(H   9,C   7,Cl  2,C   1)    -85.0033         0.100000   
     85. D(H   9,C   7,Cl  2,C   0)   -110.9328         0.100000   
     86. D(H   8,C   7,Cl  2,C   1)    167.6918         0.100000   
     87. D(H   8,C   7,Cl  2,C   0)    141.7623         0.100000   
     88. D(C   0,C   7,Cl  2,C   1)     25.9295         0.100000   
     89. D(Cl  2,C   7,C   0,H   5)     84.4856         0.100000   
     90. D(Cl  2,C   7,C   0,C   1)   -118.0781         0.100000   
     91. D(H  10,C   7,C   0,Cl  2)   -157.0280         0.100000   
     92. D(H  10,C   7,C   0,H   5)    -72.5424         0.100000   
     93. D(H  10,C   7,Cl  2,C   0)     53.5715         0.100000   
     94. D(H  10,C   7,C   0,C   1)     84.8939         0.100000   
     95. D(H   9,C   7,C   0,Cl  2)     83.0649         0.100000   
     96. D(H  13,N  11,C   1,Cl  2)      6.6435         0.100000   
     97. D(H  13,N  11,C   1,H   6)    117.3975         0.100000   
     98. D(H  13,N  11,C   1,H   4)   -133.4753         0.100000   
     99. D(H  13,N  11,C   1,C   0)    -33.7126         0.100000   
    100. D(H  12,N  11,C   1,Cl  2)    125.6094         0.100000   
    101. D(H  12,N  11,C   1,H   6)   -123.6366         0.100000   
    102. D(H  12,N  11,C   1,H   4)    -14.5094         0.100000   
    103. D(H  12,N  11,C   1,C   0)     85.2533         0.100000   
    -----------------------------------------------------------------

Number of atoms                         .... 14
Number of degrees of freedom            .... 103

         *************************************************************
         *                GEOMETRY OPTIMIZATION CYCLE   1            *
         *************************************************************
---------------------------------
CARTESIAN COORDINATES (ANGSTROEM)
---------------------------------
  C     -0.266762   -0.124383   -0.180767
  C     -0.234444   -0.093802    1.192157
  Cl     2.167454    0.138383   -0.997222
  Cl    -3.127051    0.437607    1.592124
  H     -1.626829    0.079483    1.233424
  H     -0.347707    0.832181   -0.685958
  H     -0.141960   -1.047781    1.714494
  C     -0.680868   -1.332747   -0.948450
  H     -0.242876   -1.308323   -1.944560
  H     -0.361245   -2.246710   -0.445741
  H     -1.775144   -1.344087   -1.038864
  N      0.299378    1.042896    1.895237
  H     -0.408423    1.758034    2.014323
  H      1.056693    1.413274    1.328497

----------------------------
CARTESIAN COORDINATES (A.U.)
----------------------------
  NO LB      ZA    FRAG     MASS         X           Y           Z
   0 C     6.0000    0    12.011   -0.504107   -0.235050   -0.341600
   1 C     6.0000    0    12.011   -0.443035   -0.177260    2.252850
   2 Cl   17.0000    0    35.453    4.095894    0.261506   -1.884476
   3 Cl   17.0000    0    35.453   -5.909270    0.826957    3.008678
   4 H     1.0000    0     1.008   -3.074261    0.150201    2.330834
   5 H     1.0000    0     1.008   -0.657071    1.572594   -1.296273
   6 H     1.0000    0     1.008   -0.268266   -1.980019    3.239924
   7 C     6.0000    0    12.011   -1.286654   -2.518527   -1.792311
   8 H     1.0000    0     1.008   -0.458969   -2.472372   -3.674686
   9 H     1.0000    0     1.008   -0.682654   -4.245667   -0.842328
  10 H     1.0000    0     1.008   -3.354536   -2.539956   -1.963168
  11 N     7.0000    0    14.007    0.565742    1.970788    3.581479
  12 H     1.0000    0     1.008   -0.771808    3.322203    3.806519
  13 H     1.0000    0     1.008    1.996860    2.670701    2.510495

--------------------------------
INTERNAL COORDINATES (ANGSTROEM)
--------------------------------
 C      0   0   0     0.000000000000     0.00000000     0.00000000
 C      1   0   0     1.373644772298     0.00000000     0.00000000
 Cl     1   2   0     2.580901445704   106.96109475     0.00000000
 Cl     2   1   3     2.968087664275    96.64643210   163.26080649
 H      2   1   3     1.403733110224    90.50385739   166.41500358
 H      1   2   3     1.084797089599   116.58859447   272.42242062
 H      2   1   3     1.091542561821   117.43979950   268.24358780
 C      1   2   3     1.490290080562   122.64562867   114.89509115
 H      8   1   2     1.088424850846   109.96347942   204.43119585
 H      8   1   2     1.090964511879   111.13093658   324.98685817
 H      8   1   2     1.098063409450   109.12920820    84.89388425
 N      2   1   3     1.439225401835   120.96844505    58.72245418
 H     12   2   1     1.013205847812   110.84014381    85.25328345
 H     12   2   1     1.015824837120   106.97410540   326.28740067

---------------------------
INTERNAL COORDINATES (A.U.)
---------------------------
 C      0   0   0     0.000000000000     0.00000000     0.00000000
 C      1   0   0     2.595812424935     0.00000000     0.00000000
 Cl     1   2   0     4.877196911022   106.96109475     0.00000000
 Cl     2   1   3     5.608872826949    96.64643210   163.26080649
 H      2   1   3     2.652671143441    90.50385739   166.41500358
 H      1   2   3     2.049969410217   116.58859447   272.42242062
 H      2   1   3     2.062716505360   117.43979950   268.24358780
 C      1   2   3     2.816240112361   122.64562867   114.89509115
 H      8   1   2     2.056824885454   109.96347942   204.43119585
 H      8   1   2     2.061624149278   111.13093658   324.98685817
 H      8   1   2     2.075039121540   109.12920820    84.89388425
 N      2   1   3     2.719741854451   120.96844505    58.72245418
 H     12   2   1     1.914681569653   110.84014381    85.25328345
 H     12   2   1     1.919630742191   106.97410540   326.28740067

---------------------
BASIS SET INFORMATION
---------------------
There are 4 groups of distinct atoms

 Group   1 Type C   : 11s5p1d contracted to 4s3p1d pattern {6311/311/1}
 Group   2 Type Cl  : 13s10p1d contracted to 6s5p1d pattern {631111/52111/1}
 Group   3 Type H   : 5s contracted to 3s pattern {311}
 Group   4 Type N   : 11s5p1d contracted to 4s3p1d pattern {6311/311/1}

Atom   0C    basis set group =>   1
Atom   1C    basis set group =>   1
Atom   2Cl   basis set group =>   2
Atom   3Cl   basis set group =>   2
Atom   4H    basis set group =>   3
Atom   5H    basis set group =>   3
Atom   6H    basis set group =>   3
Atom   7C    basis set group =>   1
Atom   8H    basis set group =>   3
Atom   9H    basis set group =>   3
Atom  10H    basis set group =>   3
Atom  11N    basis set group =>   4
Atom  12H    basis set group =>   3
Atom  13H    basis set group =>   3
------------------------------------------------------------------------------
                           ORCA GTO INTEGRAL CALCULATION
------------------------------------------------------------------------------

                         BASIS SET STATISTICS AND STARTUP INFO

 # of primitive gaussian shells          ...  156
 # of primitive gaussian functions       ...  260
 # of contracted shells                  ...   80
 # of contracted basis functions         ...  148
 Highest angular momentum                ...    2
 Maximum contraction depth               ...    6
 Integral package used                   ... LIBINT
 Integral threshhold            Thresh   ...  3.000e-16
 Primitive cut-off              TCut     ...  3.000e-18


------------------------------ INTEGRAL EVALUATION ----------------------------


 * One electron integrals 
 Pre-screening matrix                    ... done
 Shell pair data                         ... done (   0.002 sec)

-------------------------------------------------------------------------------
                                 ORCA SCF
-------------------------------------------------------------------------------

------------
SCF SETTINGS
------------
Hamiltonian:
 Ab initio Hamiltonian  Method          .... Hartree-Fock(GTOs)


General Settings:
 Integral files         IntName         .... run
 Hartree-Fock type      HFTyp           .... RHF
 Total Charge           Charge          ....   -1
 Multiplicity           Mult            ....    1
 Number of Electrons    NEL             ....   68
 Basis Dimension        Dim             ....  148
 Nuclear Repulsion      ENuc            ....    331.3278179540 Eh

Convergence Acceleration:
 DIIS                   CNVDIIS         .... on
   Start iteration      DIISMaxIt       ....    12
   Startup error        DIISStart       ....  0.200000
   # of expansion vecs  DIISMaxEq       ....     5
   Bias factor          DIISBfac        ....   1.050
   Max. coefficient     DIISMaxC        ....  10.000
 Newton-Raphson         CNVNR           .... off
 SOSCF                  CNVSOSCF        .... on
   Start iteration      SOSCFMaxIt      ....   150
   Startup grad/error   SOSCFStart      ....  0.003300
 Level Shifting         CNVShift        .... on
   Level shift para.    LevelShift      ....    0.2500
   Turn off err/grad.   ShiftErr        ....    0.0010
 Zerner damping         CNVZerner       .... off
 Static damping         CNVDamp         .... on
   Fraction old density DampFac         ....    0.7000
   Max. Damping (<1)    DampMax         ....    0.9800
   Min. Damping (>=0)   DampMin         ....    0.0000
   Turn off err/grad.   DampErr         ....    0.1000
 Fernandez-Rico         CNVRico         .... off

SCF Procedure:
 Maximum # iterations   MaxIter         ....   125
 SCF integral mode      SCFMode         .... Direct
   Integral package                     .... LIBINT
 Reset frequeny         DirectResetFreq ....    20
 Integral Threshold     Thresh          ....  3.000e-16 Eh
 Primitive CutOff       TCut            ....  3.000e-18 Eh

Convergence Tolerance:
 Convergence Check Mode ConvCheckMode   .... All-Criteria
 Convergence forced     ConvForced      .... 1
 Energy Change          TolE            ....  1.000e-14 Eh
 Max Density Change     TolMaxP         ....  1.000e-14
 RMS Density Change     TolRMSP         ....  1.000e-14
 Orbital Gradient       TolG            ....  1.000e-09
 Orbital Rotation angle TolX            ....  1.000e-09
 DIIS Error             TolErr          ....  1.000e-14


Diagonalization of the overlap matrix:
Smallest eigenvalue                        ... 2.087e-03
Time for diagonalization                   ...    0.004 sec
Threshold for overlap eigenvalues          ... 1.000e-08
Number of eigenvalues below threshold      ... 0
Time for construction of square roots      ...    0.001 sec
Total time needed                          ...    0.005 sec

-------------------
DFT GRID GENERATION
-------------------

General Integration Accuracy     IntAcc      ...  4.340
Radial Grid Type                 RadialGrid  ... Gauss-Chebyshev
Angular Grid (max. acc.)         AngularGrid ... Lebedev-110
Angular grid pruning method      GridPruning ... 3 (G Style)
Weight generation scheme         WeightScheme... Becke
Basis function cutoff            BFCut       ...    3.0000e-16
Integration weight cutoff        WCut        ...    1.0000e-14
Grids for H and He will be reduced by one unit

# of grid points (after initial pruning)     ...  16710 (   0.0 sec)
# of grid points (after weights+screening)   ...  15673 (   0.0 sec)
nearest neighbour list constructed           ...    0.0 sec
Grid point re-assignment to atoms done       ...    0.0 sec
Grid point division into batches done        ...    0.0 sec
Reduced shell lists constructed in    0.3 sec

Total number of grid points                  ...    15673
Total number of batches                      ...      253
Average number of points per batch           ...       61
Average number of grid points per atom       ...     1120
Average number of shells per batch           ...    56.59 (70.74%)
Average number of basis functions per batch  ...   106.91 (72.24%)
Average number of large shells per batch     ...    46.24 (81.70%)
Average number of large basis fcns per batch ...    86.57 (80.98%)
Maximum spatial batch extension              ...  21.14, 22.20, 18.35 au
Average spatial batch extension              ...   3.90,  3.93,  3.93 au

Time for grid setup =    0.311 sec

------------------------------
INITIAL GUESS: MODEL POTENTIAL
------------------------------
Loading Hartree-Fock densities                     ... done
Calculating cut-offs                               ... done
Setting up the integral package                    ... done
Initializing the effective Hamiltonian             ... done
Starting the Coulomb interaction                   ... done (   0.2 sec)
Reading the grid                                   ... done
Mapping shells                                     ... done
Starting the XC term evaluation                    ... done (   0.3 sec)
Transforming the Hamiltonian                       ... done (   0.0 sec)
Diagonalizing the Hamiltonian                      ... done (   0.0 sec)
Back transforming the eigenvectors                 ... done (   0.0 sec)
Now organizing SCF variables                       ... done
                      ------------------
                      INITIAL GUESS DONE (   0.9 sec)
                      ------------------
--------------
SCF ITERATIONS
--------------
ITER       Energy         Delta-E        Max-DP      RMS-DP      [F,P]     Damp
               ***  Starting incremental Fock matrix formation  ***
  0  -1091.4309322254   0.000000000000 0.05853033  0.00175320  0.6458144 0.7000
  1  -1091.5468260006  -0.115893775232 0.04379280  0.00137664  0.4552083 0.7000
  2  -1091.6180488936  -0.071222892975 0.02758311  0.00088832  0.3210243 0.7000
  3  -1091.6635228189  -0.045473925294 0.01671128  0.00055717  0.2264762 0.7000
                               ***Turning on DIIS***
  4  -1091.6942222447  -0.030699425848 0.01006675  0.00036277  0.1596070 0.7000
  5  -1092.1082119918  -0.413989747089 0.00673235  0.00026044  0.1123782 0.7000
  6  -1092.0416643383   0.066547653489 0.02016021  0.00070103  0.0787341 0.0000
  7  -1091.7760972427   0.265567095589 0.00572973  0.00012368  0.0042762 0.0000
                      *** Initiating the SOSCF procedure ***
                           *** Shutting down DIIS ***
                      *** Re-Reading the Fockian *** 
                      *** Removing any level shift *** 
ITER      Energy       Delta-E        Grad      Rot      Max-DP    RMS-DP
  8  -1091.77371569   0.0023815571  0.002826  0.002826  0.004782  0.000100
               *** Restarting incremental Fock matrix formation ***
  9  -1091.76652697   0.0071887120  0.001229  0.002531  0.002623  0.000057
 10  -1091.76654507  -0.0000180962  0.000446  0.002424  0.003441  0.000072
 11  -1091.76655243  -0.0000073649  0.000077  0.000129  0.000302  0.000009
 12  -1091.76655278  -0.0000003443  0.000044  0.000094  0.000068  0.000003
 13  -1091.76655281  -0.0000000296  0.000014  0.000068  0.000052  0.000002
 14  -1091.76655281  -0.0000000058  0.000004  0.000009  0.000017  0.000000
 15  -1091.76655281  -0.0000000005  0.000001  0.000002  0.000002  0.000000
 16  -1091.76655281  -0.0000000000  0.000000  0.000001  0.000001  0.000000
 17  -1091.76655281  -0.0000000000  0.000000  0.000000  0.000000  0.000000
 18  -1091.76655281   0.0000000000  0.000000  0.000000  0.000000  0.000000
 19  -1091.76655281   0.0000000000  0.000000  0.000000  0.000000  0.000000
 20  -1091.76655281  -0.0000000000  0.000000  0.000000  0.000000  0.000000
 21  -1091.76655281  -0.0000000000  0.000000  0.000000  0.000000  0.000000
 22  -1091.76655281   0.0000000000  0.000000  0.000000  0.000000  0.000000
                    ***Orbital Rotation convergence achieved***
 23  -1091.76655281  -0.0000000000  0.000000  0.000000  0.000000  0.000000
                           ***RMSP convergence achieved***
                           ***MAXP convergence achieved***
                       ***Gradient convergence achieved***
 24  -1091.76655281  -0.0000000000  0.000000  0.000000  0.000000  0.000000
                          ***Energy convergence achieved***
              ***Rediagonalizing the Fockian in SOSCF/NRSCF***

               *****************************************************
               *                     SUCCESS                       *
               *           SCF CONVERGED AFTER  25 CYCLES          *
               *****************************************************


----------------
TOTAL SCF ENERGY
----------------

Total Energy       :        -1091.76655281 Eh          -29708.47825 eV

Components:
Nuclear Repulsion  :          331.32781795 Eh            9015.88829 eV
Electronic Energy  :        -1423.09437077 Eh          -38724.36654 eV
One Electron Energy:        -2174.81742493 Eh          -59179.79077 eV
Two Electron Energy:          751.72305416 Eh           20455.42424 eV

Virial components:
Potential Energy   :        -2183.58807865 Eh          -59418.45240 eV
Kinetic Energy     :         1091.82152583 Eh           29709.97414 eV
Virial Ratio       :            1.99994965


---------------
SCF CONVERGENCE
---------------

  Last Energy change         ...    0.0000e+00  Tolerance :   1.0000e-14
  Last MAX-Density change    ...    0.0000e+00  Tolerance :   1.0000e-14
  Last RMS-Density change    ...    0.0000e+00  Tolerance :   1.0000e-14
  Last Orbital Gradient      ...    9.9700e-10  Tolerance :   1.0000e-09
  Last Orbital Rotation      ...    0.0000e+00  Tolerance :   1.0000e-09

             **** THE GBW FILE WAS UPDATED (run.gbw) ****
             **** DENSITY FILE WAS UPDATED (run.scfp.tmp) ****
             **** ENERGY FILE WAS UPDATED (run.en.tmp) ****
----------------
ORBITAL ENERGIES
----------------

  NO   OCC          E(Eh)            E(eV) 
   0   2.0000    -104.627584     -2847.0613 
   1   2.0000    -104.570411     -2845.5056 
   2   2.0000     -15.415266      -419.4707 
   3   2.0000     -11.185221      -304.3653 
   4   2.0000     -11.125859      -302.7500 
   5   2.0000     -11.125360      -302.7364 
   6   2.0000     -10.354244      -281.7533 
   7   2.0000     -10.296321      -280.1771 
   8   2.0000      -7.821818      -212.8425 
   9   2.0000      -7.820322      -212.8018 
  10   2.0000      -7.820318      -212.8017 
  11   2.0000      -7.763376      -211.2522 
  12   2.0000      -7.762909      -211.2395 
  13   2.0000      -7.762861      -211.2382 
  14   2.0000      -1.073301       -29.2060 
  15   2.0000      -0.957427       -26.0529 
  16   2.0000      -0.884045       -24.0561 
  17   2.0000      -0.813650       -22.1405 
  18   2.0000      -0.808076       -21.9889 
  19   2.0000      -0.667333       -18.1591 
  20   2.0000      -0.547785       -14.9060 
  21   2.0000      -0.531846       -14.4723 
  22   2.0000      -0.500457       -13.6181 
  23   2.0000      -0.475796       -12.9471 
  24   2.0000      -0.437243       -11.8980 
  25   2.0000      -0.412053       -11.2125 
  26   2.0000      -0.406503       -11.0615 
  27   2.0000      -0.287006        -7.8098 
  28   2.0000      -0.274554        -7.4710 
  29   2.0000      -0.274184        -7.4609 
  30   2.0000      -0.258442        -7.0326 
  31   2.0000      -0.220944        -6.0122 
  32   2.0000      -0.219586        -5.9753 
  33   2.0000      -0.183558        -4.9949 
  34   0.0000       0.227646         6.1946 
  35   0.0000       0.278594         7.5809 
  36   0.0000       0.292234         7.9521 
  37   0.0000       0.312655         8.5078 
  38   0.0000       0.343499         9.3471 
  39   0.0000       0.345123         9.3913 
  40   0.0000       0.358968         9.7680 
  41   0.0000       0.375233        10.2106 
  42   0.0000       0.416196        11.3253 
  43   0.0000       0.471094        12.8191 
  44   0.0000       0.490923        13.3587 
  45   0.0000       0.525364        14.2959 
  46   0.0000       0.552663        15.0387 
  47   0.0000       0.583919        15.8893 
  48   0.0000       0.590862        16.0782 
  49   0.0000       0.598213        16.2782 
  50   0.0000       0.616477        16.7752 
  51   0.0000       0.638369        17.3709 
  52   0.0000       0.647330        17.6147 
  53   0.0000       0.657882        17.9019 
  54   0.0000       0.682909        18.5829 
  55   0.0000       0.692449        18.8425 
  56   0.0000       0.730629        19.8814 
  57   0.0000       0.736335        20.0367 
  58   0.0000       0.775019        21.0893 
  59   0.0000       0.781898        21.2765 
  60   0.0000       0.848105        23.0781 
  61   0.0000       0.869191        23.6519 
  62   0.0000       0.896204        24.3870 
  63   0.0000       0.906784        24.6748 
  64   0.0000       0.926423        25.2092 
  65   0.0000       0.930805        25.3285 
  66   0.0000       0.943724        25.6800 
  67   0.0000       0.967501        26.3271 
  68   0.0000       1.022221        27.8160 
  69   0.0000       1.041935        28.3525 
  70   0.0000       1.089302        29.6414 
  71   0.0000       1.129201        30.7271 
  72   0.0000       1.145061        31.1587 
  73   0.0000       1.181567        32.1521 
  74   0.0000       1.221253        33.2320 
  75   0.0000       1.290886        35.1268 
  76   0.0000       1.302214        35.4350 
  77   0.0000       1.342458        36.5301 
  78   0.0000       1.348388        36.6915 
  79   0.0000       1.349171        36.7128 
  80   0.0000       1.353668        36.8352 
  81   0.0000       1.407111        38.2894 
  82   0.0000       1.411732        38.4152 
  83   0.0000       1.428904        38.8824 
  84   0.0000       1.438355        39.1396 
  85   0.0000       1.466577        39.9076 
  86   0.0000       1.558765        42.4161 
  87   0.0000       1.583533        43.0901 
  88   0.0000       1.630009        44.3548 
  89   0.0000       1.667878        45.3853 
  90   0.0000       1.745294        47.4919 
  91   0.0000       1.787699        48.6458 
  92   0.0000       1.859513        50.5999 
  93   0.0000       1.890278        51.4371 
  94   0.0000       1.900449        51.7138 
  95   0.0000       1.985730        54.0345 
  96   0.0000       2.053388        55.8755 
  97   0.0000       2.119218        57.6669 
  98   0.0000       2.156421        58.6792 
  99   0.0000       2.316668        63.0397 
 100   0.0000       2.329938        63.4008 
 101   0.0000       2.389249        65.0148 
 102   0.0000       2.405163        65.4478 
 103   0.0000       2.459805        66.9347 
 104   0.0000       2.561217        69.6943 
 105   0.0000       2.660284        72.3900 
 106   0.0000       2.673279        72.7436 
 107   0.0000       2.683492        73.0215 
 108   0.0000       2.696173        73.3666 
 109   0.0000       2.730996        74.3142 
 110   0.0000       2.749389        74.8147 
 111   0.0000       2.789245        75.8992 
 112   0.0000       2.803761        76.2942 
 113   0.0000       2.848620        77.5149 
 114   0.0000       2.858681        77.7887 
 115   0.0000       2.883403        78.4614 
 116   0.0000       2.926292        79.6284 
 117   0.0000       3.018824        82.1464 
 118   0.0000       3.071381        83.5765 
 119   0.0000       3.254091        88.5483 
 120   0.0000       3.266490        88.8857 
 121   0.0000       3.328485        90.5727 
 122   0.0000       3.431717        93.3818 
 123   0.0000       3.470862        94.4470 
 124   0.0000       3.541790        96.3770 
 125   0.0000       3.654398        99.4412 
 126   0.0000       3.698466       100.6404 
 127   0.0000       3.744268       101.8867 
 128   0.0000       3.850852       104.7870 
 129   0.0000       4.144086       112.7663 
 130   0.0000       4.460869       121.3864 
 131   0.0000       4.525674       123.1499 
 132   0.0000       4.682550       127.4187 
 133   0.0000       5.198739       141.4649 
 134   0.0000      10.403414       283.0913 
 135   0.0000      10.534335       286.6538 
 136   0.0000      24.635000       670.3524 
 137   0.0000      24.933793       678.4830 
 138   0.0000      25.299706       688.4400 
 139   0.0000      26.456278       719.9119 
 140   0.0000      26.503881       721.2073 
 141   0.0000      26.533134       722.0033 
 142   0.0000      26.605850       723.9820 
 143   0.0000      26.779886       728.7177 
 144   0.0000      26.852693       730.6989 
 145   0.0000      36.973604      1006.1029 
 146   0.0000     219.217364      5965.2077 
 147   0.0000     219.380093      5969.6358 

                    ********************************
                    * MULLIKEN POPULATION ANALYSIS *
                    ********************************

-----------------------
MULLIKEN ATOMIC CHARGES
-----------------------
   0 C :   -0.042096
   1 C :   -0.232060
   2 Cl:   -0.822692
   3 Cl:   -0.671299
   4 H :    0.332794
   5 H :    0.263169
   6 H :    0.223459
   7 C :   -0.616801
   8 H :    0.255570
   9 H :    0.217661
  10 H :    0.229849
  11 N :   -0.845734
  12 H :    0.337328
  13 H :    0.370853
Sum of atomic charges:   -1.0000000

--------------------------------
MULLIKEN REDUCED ORBITAL CHARGES
--------------------------------
  0 C s       :     3.322139  s :     3.322139
      pz      :     0.946209  p :     2.636013
      px      :     0.643450
      py      :     1.046354
      dz2     :     0.019030  d :     0.083944
      dxz     :     0.018088
      dyz     :     0.025924
      dx2y2   :     0.014896
      dxy     :     0.006005
  1 C s       :     3.219203  s :     3.219203
      pz      :     0.842245  p :     2.916967
      px      :     1.103538
      py      :     0.971184
      dz2     :     0.027255  d :     0.095890
      dxz     :     0.010948
      dyz     :     0.030431
      dx2y2   :     0.019078
      dxy     :     0.008177
  2 Cls       :     5.986946  s :     5.986946
      pz      :     3.974528  p :    11.834530
      px      :     3.871213
      py      :     3.988789
      dz2     :     0.000137  d :     0.001216
      dxz     :     0.000363
      dyz     :     0.000039
      dx2y2   :     0.000503
      dxy     :     0.000174
  3 Cls       :     5.980967  s :     5.980967
      pz      :     3.977499  p :    11.682992
      px      :     3.728217
      py      :     3.977277
      dz2     :     0.001252  d :     0.007340
      dxz     :     0.001149
      dyz     :     0.000080
      dx2y2   :     0.003711
      dxy     :     0.001149
  4 H s       :     0.667206  s :     0.667206
  5 H s       :     0.736831  s :     0.736831
  6 H s       :     0.776541  s :     0.776541
  7 C s       :     3.344504  s :     3.344504
      pz      :     1.115727  p :     3.203701
      px      :     1.091748
      py      :     0.996226
      dz2     :     0.016086  d :     0.068597
      dxz     :     0.008520
      dyz     :     0.016141
      dx2y2   :     0.022030
      dxy     :     0.005820
  8 H s       :     0.744430  s :     0.744430
  9 H s       :     0.782339  s :     0.782339
 10 H s       :     0.770151  s :     0.770151
 11 N s       :     3.687431  s :     3.687431
      pz      :     1.703493  p :     4.121856
      px      :     1.249844
      py      :     1.168520
      dz2     :     0.004044  d :     0.036447
      dxz     :     0.008094
      dyz     :     0.007246
      dx2y2   :     0.002660
      dxy     :     0.014402
 12 H s       :     0.662672  s :     0.662672
 13 H s       :     0.629147  s :     0.629147


                     *******************************
                     * LOEWDIN POPULATION ANALYSIS *
                     *******************************

----------------------
LOEWDIN ATOMIC CHARGES
----------------------
   0 C :    0.066394
   1 C :   -0.241817
   2 Cl:   -0.761000
   3 Cl:   -0.574127
   4 H :    0.187903
   5 H :    0.125225
   6 H :    0.100197
   7 C :   -0.275354
   8 H :    0.123089
   9 H :    0.110021
  10 H :    0.118294
  11 N :   -0.373214
  12 H :    0.192450
  13 H :    0.201939

-------------------------------
LOEWDIN REDUCED ORBITAL CHARGES
-------------------------------
  0 C s       :     2.892661  s :     2.892661
      pz      :     1.114456  p :     2.884254
      px      :     0.670625
      py      :     1.099173
      dz2     :     0.039026  d :     0.156691
      dxz     :     0.034147
      dyz     :     0.049122
      dx2y2   :     0.023132
      dxy     :     0.011265
  1 C s       :     2.843940  s :     2.843940
      pz      :     1.070347  p :     3.205618
      px      :     1.111992
      py      :     1.023280
      dz2     :     0.059938  d :     0.192259
      dxz     :     0.018775
      dyz     :     0.060514
      dx2y2   :     0.035333
      dxy     :     0.017698
  2 Cls       :     5.947398  s :     5.947398
      pz      :     3.966856  p :    11.812237
      px      :     3.862206
      py      :     3.983176
      dz2     :     0.000130  d :     0.001364
      dxz     :     0.000465
      dyz     :     0.000047
      dx2y2   :     0.000548
      dxy     :     0.000175
  3 Cls       :     5.870558  s :     5.870558
      pz      :     3.978808  p :    11.695364
      px      :     3.738635
      py      :     3.977922
      dz2     :     0.001397  d :     0.008205
      dxz     :     0.001266
      dyz     :     0.000085
      dx2y2   :     0.004173
      dxy     :     0.001285
  4 H s       :     0.812097  s :     0.812097
  5 H s       :     0.874775  s :     0.874775
  6 H s       :     0.899803  s :     0.899803
  7 C s       :     2.882733  s :     2.882733
      pz      :     1.106407  p :     3.285541
      px      :     1.100518
      py      :     1.078616
      dz2     :     0.023834  d :     0.107079
      dxz     :     0.011646
      dyz     :     0.027329
      dx2y2   :     0.034006
      dxy     :     0.010265
  8 H s       :     0.876911  s :     0.876911
  9 H s       :     0.889979  s :     0.889979
 10 H s       :     0.881706  s :     0.881706
 11 N s       :     3.192224  s :     3.192224
      pz      :     1.651026  p :     4.129204
      px      :     1.260630
      py      :     1.217548
      dz2     :     0.004823  d :     0.051787
      dxz     :     0.009698
      dyz     :     0.011193
      dx2y2   :     0.005796
      dxy     :     0.020277
 12 H s       :     0.807550  s :     0.807550
 13 H s       :     0.798061  s :     0.798061


                      *****************************
                      * MAYER POPULATION ANALYSIS *
                      *****************************

  NA   - Mulliken gross atomic population
  ZA   - Total nuclear charge
  QA   - Mulliken gross atomic charge
  VA   - Mayer's total valence
  BVA  - Mayer's bonded valence
  FA   - Mayer's free valence

  ATOM       NA         ZA         QA         VA         BVA        FA
  0 C      6.0421     6.0000    -0.0421     3.5837     3.5837     0.0000
  1 C      6.2321     6.0000    -0.2321     3.4944     3.4944     0.0000
  2 Cl    17.8227    17.0000    -0.8227     0.2545     0.2545    -0.0000
  3 Cl    17.6713    17.0000    -0.6713     0.4648     0.4648    -0.0000
  4 H      0.6672     1.0000     0.3328     0.8372     0.8372    -0.0000
  5 H      0.7368     1.0000     0.2632     0.8954     0.8954     0.0000
  6 H      0.7765     1.0000     0.2235     0.9238     0.9238     0.0000
  7 C      6.6168     6.0000    -0.6168     3.6700     3.6700    -0.0000
  8 H      0.7444     1.0000     0.2556     0.9003     0.9003    -0.0000
  9 H      0.7823     1.0000     0.2177     0.9162     0.9162     0.0000
 10 H      0.7702     1.0000     0.2298     0.9034     0.9034     0.0000
 11 N      7.8457     7.0000    -0.8457     2.5897     2.5897    -0.0000
 12 H      0.6627     1.0000     0.3373     0.8523     0.8523    -0.0000
 13 H      0.6291     1.0000     0.3709     0.8355     0.8355     0.0000

  Mayer bond orders larger than 0.1
B(  0-C ,  1-C ) :   1.3887 B(  0-C ,  2-Cl) :   0.2654 B(  0-C ,  5-H ) :   0.9211 
B(  0-C ,  7-C ) :   0.9551 B(  1-C ,  4-H ) :   0.3793 B(  1-C ,  6-H ) :   0.9455 
B(  1-C , 11-N ) :   0.9064 B(  3-Cl,  4-H ) :   0.4116 B(  7-C ,  8-H ) :   0.9280 
B(  7-C ,  9-H ) :   0.9460 B(  7-C , 10-H ) :   0.9167 B( 11-N , 12-H ) :   0.8515 
B( 11-N , 13-H ) :   0.8338 

-------
TIMINGS
-------

Total SCF time: 0 days 0 hours 1 min 32 sec 

Total time                  ....      92.746 sec
Sum of individual times     ....      92.707 sec  (100.0%)

Fock matrix formation       ....      91.719 sec  ( 98.9%)
Diagonalization             ....       0.051 sec  (  0.1%)
Density matrix formation    ....       0.007 sec  (  0.0%)
Population analysis         ....       0.006 sec  (  0.0%)
Initial guess               ....       0.561 sec  (  0.6%)
Orbital Transformation      ....       0.000 sec  (  0.0%)
Orbital Orthonormalization  ....       0.000 sec  (  0.0%)
DIIS solution               ....       0.010 sec  (  0.0%)
SOSCF solution              ....       0.042 sec  (  0.0%)

------------------------------------------------------------------------------
                                ORCA  MP2 
------------------------------------------------------------------------------

MP2 will be done in the AO integral direct mode
The Q1-step will be done using symmetric double matrices
Dimension of the basis                    ...  148
Memory devoted for MP2                    ... 5000 MB   
Memory needed for all in one shot         ...  424 MB
Number of MOs that can be treated together...  400      
MP2 density construction                  ... relaxed
The MP2 gradient is requested => amplitudes will be stored on disk
Total number of MOs              ...   34
Number of MOs treated per batch  ...   34 
Number of batches necessary      ...    1 
OPERATORS   0/  0 PASS   0
-----------------------------------------------
 MP2 CORRELATION ENERGY   :     -1.051515677 Eh
-----------------------------------------------


---------------------
MP2 DENSITY FORMATION
---------------------

Completing the external part of the density      ... done
Storing the unrelaxed density                    ... done

Calculating G(D)                                 ... done
Completing the Lagrangian                        ... done
Solving the Z-vector equations                   ... 

------------------------------------------------------------------------------
                           ORCA CP-SCF CALCULATION
------------------------------------------------------------------------------

Input orbitals are from        ... run.gbw
Input Perturbation             ... run.pin.tmp
Wavefunction output            ... run.pout.tmp
Perturbation mode              ... Real perturbation
Solver                         ... POPLE
Max. number of iterations      ... 128
Convergence tolerance          ... 1.000e-11
Integral handling              ... Direct
Number of perturbations        ... 1
Number of operators            ... 1
Orbital ranges used for CP-SCF:
 Operator 0:  Orbitals   0... 33  to  34...147
Variables per vector in CP-SCF ... 3876
Number of vectors sought       ... 1
     CP-SCF ITERATION   0: 
     CP-SCF ITERATION   1:      0.002814050069
     CP-SCF ITERATION   2:      0.000297814734
     CP-SCF ITERATION   3:      0.000049060527
     CP-SCF ITERATION   4:      0.000004668579
     CP-SCF ITERATION   5:      0.000000632380
     CP-SCF ITERATION   6:      0.000000042869
     CP-SCF ITERATION   7:      0.000000003164
     CP-SCF ITERATION   8:      0.000000000259
     CP-SCF ITERATION   9:      0.000000000031
     CP-SCF ITERATION  10:      0.000000000004
                                                 ... done
Finalizing the relaxed density                   ... done
Transforming P to the AO basis                   ... done
Storing the relaxed density                      ... done

------------------------------------
ENERGY WEIGHTED DENSITY FINALIZATION
------------------------------------

Gathering the parts of the W-matrix              ...                                                      done
Forming the Z-density                            ... done
Transforming Z to the AO basis                   ... done
Calculating G(Z)                                 ... done
Finalizing the W-matrix                          ...                                                      done
Transforming W to the AO basis and storing       ... done

                *********************************************
                * UNRELAXED MP2 DENSITY POPULATION ANALYSIS *
                *********************************************

------------------------------------------------------------------------------
                           ORCA POPULATION ANALYSIS
------------------------------------------------------------------------------
Input electron density              ... run.pmp2ur
BaseName (.gbw .S,...)              ... run

                    ********************************
                    * MULLIKEN POPULATION ANALYSIS *
                    ********************************

-----------------------
MULLIKEN ATOMIC CHARGES
-----------------------
   0 C :   -0.063817
   1 C :   -0.231555
   2 Cl:   -0.813408
   3 Cl:   -0.663091
   4 H :    0.326504
   5 H :    0.265039
   6 H :    0.225878
   7 C :   -0.622609
   8 H :    0.257427
   9 H :    0.220155
  10 H :    0.231722
  11 N :   -0.838280
  12 H :    0.336629
  13 H :    0.369406
Sum of atomic charges:   -1.0000000

--------------------------------
MULLIKEN REDUCED ORBITAL CHARGES
--------------------------------
  0 C s       :     3.318497  s :     3.318497
      pz      :     0.943290  p :     2.644229
      px      :     0.658238
      py      :     1.042700
      dz2     :     0.022363  d :     0.101091
      dxz     :     0.021195
      dyz     :     0.030046
      dx2y2   :     0.017944
      dxy     :     0.009542
  1 C s       :     3.215986  s :     3.215986
      pz      :     0.840313  p :     2.898547
      px      :     1.089293
      py      :     0.968941
      dz2     :     0.030766  d :     0.117022
      dxz     :     0.015926
      dyz     :     0.034342
      dx2y2   :     0.023454
      dxy     :     0.012533
  2 Cls       :     5.979809  s :     5.979809
      pz      :     3.958030  p :    11.782797
      px      :     3.851912
      py      :     3.972855
      dz2     :     0.010005  d :     0.050801
      dxz     :     0.010372
      dyz     :     0.009817
      dx2y2   :     0.010458
      dxy     :     0.010149
  3 Cls       :     5.973300  s :     5.973300
      pz      :     3.961256  p :    11.632808
      px      :     3.710458
      py      :     3.961094
      dz2     :     0.011149  d :     0.056984
      dxz     :     0.011107
      dyz     :     0.009901
      dx2y2   :     0.013724
      dxy     :     0.011102
  4 H s       :     0.673496  s :     0.673496
  5 H s       :     0.734961  s :     0.734961
  6 H s       :     0.774122  s :     0.774122
  7 C s       :     3.341015  s :     3.341015
      pz      :     1.111704  p :     3.192689
      px      :     1.088056
      py      :     0.992930
      dz2     :     0.020189  d :     0.088905
      dxz     :     0.012843
      dyz     :     0.019864
      dx2y2   :     0.025765
      dxy     :     0.010245
  8 H s       :     0.742573  s :     0.742573
  9 H s       :     0.779845  s :     0.779845
 10 H s       :     0.768278  s :     0.768278
 11 N s       :     3.682894  s :     3.682894
      pz      :     1.691510  p :     4.099131
      px      :     1.244465
      py      :     1.163156
      dz2     :     0.008350  d :     0.056255
      dxz     :     0.012145
      dyz     :     0.011193
      dx2y2   :     0.006612
      dxy     :     0.017955
 12 H s       :     0.663371  s :     0.663371
 13 H s       :     0.630594  s :     0.630594


                     *******************************
                     * LOEWDIN POPULATION ANALYSIS *
                     *******************************

----------------------
LOEWDIN ATOMIC CHARGES
----------------------
   0 C :    0.045105
   1 C :   -0.245044
   2 Cl:   -0.751933
   3 Cl:   -0.565741
   4 H :    0.184003
   5 H :    0.128757
   6 H :    0.104321
   7 C :   -0.286567
   8 H :    0.126537
   9 H :    0.113853
  10 H :    0.121665
  11 N :   -0.371439
  12 H :    0.193742
  13 H :    0.202741

-------------------------------
LOEWDIN REDUCED ORBITAL CHARGES
-------------------------------
  0 C s       :     2.891387  s :     2.891387
      pz      :     1.107865  p :     2.886374
      px      :     0.684536
      py      :     1.093973
      dz2     :     0.044121  d :     0.177135
      dxz     :     0.037203
      dyz     :     0.053721
      dx2y2   :     0.026907
      dxy     :     0.015182
  1 C s       :     2.844635  s :     2.844635
      pz      :     1.064130  p :     3.183556
      px      :     1.099240
      py      :     1.020186
      dz2     :     0.064982  d :     0.216854
      dxz     :     0.024321
      dyz     :     0.064617
      dx2y2   :     0.040298
      dxy     :     0.022635
  2 Cls       :     5.940103  s :     5.940103
      pz      :     3.950206  p :    11.760134
      px      :     3.842778
      py      :     3.967150
      dz2     :     0.010095  d :     0.051696
      dxz     :     0.010674
      dyz     :     0.009875
      dx2y2   :     0.010787
      dxy     :     0.010265
  3 Cls       :     5.863158  s :     5.863158
      pz      :     3.962452  p :    11.644034
      px      :     3.719939
      py      :     3.961643
      dz2     :     0.011400  d :     0.058549
      dxz     :     0.011357
      dyz     :     0.009925
      dx2y2   :     0.014474
      dxy     :     0.011394
  4 H s       :     0.815997  s :     0.815997
  5 H s       :     0.871243  s :     0.871243
  6 H s       :     0.895679  s :     0.895679
  7 C s       :     2.883490  s :     2.883490
      pz      :     1.102188  p :     3.272639
      px      :     1.096749
      py      :     1.073702
      dz2     :     0.028385  d :     0.130438
      dxz     :     0.016516
      dyz     :     0.031922
      dx2y2   :     0.038465
      dxy     :     0.015149
  8 H s       :     0.873463  s :     0.873463
  9 H s       :     0.886147  s :     0.886147
 10 H s       :     0.878335  s :     0.878335
 11 N s       :     3.191151  s :     3.191151
      pz      :     1.639692  p :     4.106628
      px      :     1.255410
      py      :     1.211526
      dz2     :     0.009393  d :     0.073660
      dxz     :     0.014086
      dyz     :     0.015772
      dx2y2   :     0.010040
      dxy     :     0.024368
 12 H s       :     0.806258  s :     0.806258
 13 H s       :     0.797259  s :     0.797259


                      *****************************
                      * MAYER POPULATION ANALYSIS *
                      *****************************

  NA   - Mulliken gross atomic population
  ZA   - Total nuclear charge
  QA   - Mulliken gross atomic charge
  VA   - Mayer's total valence
  BVA  - Mayer's bonded valence
  FA   - Mayer's free valence

  ATOM       NA         ZA         QA         VA         BVA        FA
  0 C      6.0638     6.0000    -0.0638     3.6953     3.3663     0.3290
  1 C      6.2316     6.0000    -0.2316     3.6139     3.2780     0.3360
  2 Cl    17.8134    17.0000    -0.8134     0.6526     0.2370     0.4156
  3 Cl    17.6631    17.0000    -0.6631     0.8391     0.4331     0.4060
  4 H      0.6735     1.0000     0.3265     0.8412     0.7844     0.0568
  5 H      0.7350     1.0000     0.2650     0.8966     0.8592     0.0375
  6 H      0.7741     1.0000     0.2259     0.9246     0.8847     0.0399
  7 C      6.6226     6.0000    -0.6226     3.7859     3.5113     0.2746
  8 H      0.7426     1.0000     0.2574     0.9016     0.8645     0.0370
  9 H      0.7798     1.0000     0.2202     0.9174     0.8799     0.0374
 10 H      0.7683     1.0000     0.2317     0.9052     0.8654     0.0398
 11 N      7.8383     7.0000    -0.8383     2.7966     2.4605     0.3361
 12 H      0.6634     1.0000     0.3366     0.8549     0.8147     0.0401
 13 H      0.6306     1.0000     0.3694     0.8387     0.7992     0.0395

  Mayer bond orders larger than 0.1
B(  0-C ,  1-C ) :   1.2953 B(  0-C ,  2-Cl) :   0.2510 B(  0-C ,  5-H ) :   0.8855 
B(  0-C ,  7-C ) :   0.9025 B(  1-C ,  4-H ) :   0.3543 B(  1-C ,  6-H ) :   0.9083 
B(  1-C , 11-N ) :   0.8517 B(  3-Cl,  4-H ) :   0.3938 B(  7-C ,  8-H ) :   0.8932 
B(  7-C ,  9-H ) :   0.9103 B(  7-C , 10-H ) :   0.8807 B( 11-N , 12-H ) :   0.8153 
B( 11-N , 13-H ) :   0.7989 


                *******************************************
                * RELAXED MP2 DENSITY POPULATION ANALYSIS *
                *******************************************

------------------------------------------------------------------------------
                           ORCA POPULATION ANALYSIS
------------------------------------------------------------------------------
Input electron density              ... run.pmp2re
BaseName (.gbw .S,...)              ... run

                    ********************************
                    * MULLIKEN POPULATION ANALYSIS *
                    ********************************

-----------------------
MULLIKEN ATOMIC CHARGES
-----------------------
   0 C :   -0.118248
   1 C :   -0.222354
   2 Cl:   -0.764166
   3 Cl:   -0.600130
   4 H :    0.290415
   5 H :    0.243181
   6 H :    0.225591
   7 C :   -0.660933
   8 H :    0.257631
   9 H :    0.221755
  10 H :    0.229208
  11 N :   -0.792090
  12 H :    0.328886
  13 H :    0.361254
Sum of atomic charges:   -1.0000000

--------------------------------
MULLIKEN REDUCED ORBITAL CHARGES
--------------------------------
  0 C s       :     3.299887  s :     3.299887
      pz      :     0.921826  p :     2.727913
      px      :     0.790686
      py      :     1.015401
      dz2     :     0.020337  d :     0.090448
      dxz     :     0.018103
      dyz     :     0.026972
      dx2y2   :     0.015825
      dxy     :     0.009210
  1 C s       :     3.212722  s :     3.212722
      pz      :     0.884703  p :     2.901221
      px      :     1.031841
      py      :     0.984678
      dz2     :     0.026805  d :     0.108411
      dxz     :     0.016193
      dyz     :     0.032724
      dx2y2   :     0.020890
      dxy     :     0.011799
  2 Cls       :     5.979595  s :     5.979595
      pz      :     3.948112  p :    11.733692
      px      :     3.817093
      py      :     3.968487
      dz2     :     0.010007  d :     0.050879
      dxz     :     0.010408
      dyz     :     0.009823
      dx2y2   :     0.010484
      dxy     :     0.010158
  3 Cls       :     5.968282  s :     5.968282
      pz      :     3.957346  p :    11.574498
      px      :     3.661958
      py      :     3.955194
      dz2     :     0.011226  d :     0.057350
      dxz     :     0.011126
      dyz     :     0.009898
      dx2y2   :     0.013939
      dxy     :     0.011162
  4 H s       :     0.709585  s :     0.709585
  5 H s       :     0.756819  s :     0.756819
  6 H s       :     0.774409  s :     0.774409
  7 C s       :     3.329238  s :     3.329238
      pz      :     1.134094  p :     3.253510
      px      :     1.096574
      py      :     1.022842
      dz2     :     0.018045  d :     0.078185
      dxz     :     0.011476
      dyz     :     0.016649
      dx2y2   :     0.022394
      dxy     :     0.009621
  8 H s       :     0.742369  s :     0.742369
  9 H s       :     0.778245  s :     0.778245
 10 H s       :     0.770792  s :     0.770792
 11 N s       :     3.655237  s :     3.655237
      pz      :     1.681519  p :     4.084687
      px      :     1.242781
      py      :     1.160387
      dz2     :     0.008332  d :     0.052166
      dxz     :     0.011329
      dyz     :     0.010395
      dx2y2   :     0.006172
      dxy     :     0.015939
 12 H s       :     0.671114  s :     0.671114
 13 H s       :     0.638746  s :     0.638746


                     *******************************
                     * LOEWDIN POPULATION ANALYSIS *
                     *******************************

----------------------
LOEWDIN ATOMIC CHARGES
----------------------
   0 C :   -0.035168
   1 C :   -0.232174
   2 Cl:   -0.714385
   3 Cl:   -0.514878
   4 H :    0.174394
   5 H :    0.122225
   6 H :    0.110418
   7 C :   -0.319427
   8 H :    0.131196
   9 H :    0.118468
  10 H :    0.124542
  11 N :   -0.367700
  12 H :    0.196658
  13 H :    0.205831

-------------------------------
LOEWDIN REDUCED ORBITAL CHARGES
-------------------------------
  0 C s       :     2.885694  s :     2.885694
      pz      :     1.095023  p :     2.980331
      px      :     0.801734
      py      :     1.083575
      dz2     :     0.044010  d :     0.169144
      dxz     :     0.032955
      dyz     :     0.051793
      dx2y2   :     0.025151
      dxy     :     0.015235
  1 C s       :     2.851502  s :     2.851502
      pz      :     1.085351  p :     3.170066
      px      :     1.058811
      py      :     1.025904
      dz2     :     0.060201  d :     0.210606
      dxz     :     0.026675
      dyz     :     0.063556
      dx2y2   :     0.038170
      dxy     :     0.022004
  2 Cls       :     5.941800  s :     5.941800
      pz      :     3.943074  p :    11.720727
      px      :     3.812972
      py      :     3.964680
      dz2     :     0.010105  d :     0.051859
      dxz     :     0.010732
      dyz     :     0.009882
      dx2y2   :     0.010860
      dxy     :     0.010278
  3 Cls       :     5.863805  s :     5.863805
      pz      :     3.959786  p :    11.592142
      px      :     3.674960
      py      :     3.957396
      dz2     :     0.011476  d :     0.058931
      dxz     :     0.011382
      dyz     :     0.009923
      dx2y2   :     0.014685
      dxy     :     0.011464
  4 H s       :     0.825606  s :     0.825606
  5 H s       :     0.877775  s :     0.877775
  6 H s       :     0.889582  s :     0.889582
  7 C s       :     2.886459  s :     2.886459
      pz      :     1.115645  p :     3.312575
      px      :     1.105561
      py      :     1.091368
      dz2     :     0.026477  d :     0.120393
      dxz     :     0.015391
      dyz     :     0.028319
      dx2y2   :     0.035254
      dxy     :     0.014952
  8 H s       :     0.868804  s :     0.868804
  9 H s       :     0.881532  s :     0.881532
 10 H s       :     0.875458  s :     0.875458
 11 N s       :     3.190802  s :     3.190802
      pz      :     1.633178  p :     4.107008
      px      :     1.258866
      py      :     1.214964
      dz2     :     0.009434  d :     0.069890
      dxz     :     0.013329
      dyz     :     0.015088
      dx2y2   :     0.009554
      dxy     :     0.022485
 12 H s       :     0.803342  s :     0.803342
 13 H s       :     0.794169  s :     0.794169


                      *****************************
                      * MAYER POPULATION ANALYSIS *
                      *****************************

  NA   - Mulliken gross atomic population
  ZA   - Total nuclear charge
  QA   - Mulliken gross atomic charge
  VA   - Mayer's total valence
  BVA  - Mayer's bonded valence
  FA   - Mayer's free valence

  ATOM       NA         ZA         QA         VA         BVA        FA
  0 C      6.1182     6.0000    -0.1182     3.8195     3.5244     0.2951
  1 C      6.2224     6.0000    -0.2224     3.7277     3.4101     0.3176
  2 Cl    17.7642    17.0000    -0.7642     0.7330     0.3271     0.4058
  3 Cl    17.6001    17.0000    -0.6001     0.9274     0.5323     0.3951
  4 H      0.7096     1.0000     0.2904     0.8628     0.8083     0.0545
  5 H      0.7568     1.0000     0.2432     0.9104     0.8744     0.0360
  6 H      0.7744     1.0000     0.2256     0.9237     0.8849     0.0389
  7 C      6.6609     6.0000    -0.6609     3.8092     3.5385     0.2707
  8 H      0.7424     1.0000     0.2576     0.9027     0.8665     0.0362
  9 H      0.7782     1.0000     0.2218     0.9152     0.8785     0.0367
 10 H      0.7708     1.0000     0.2292     0.9050     0.8664     0.0386
 11 N      7.7921     7.0000    -0.7921     2.8693     2.5386     0.3307
 12 H      0.6711     1.0000     0.3289     0.8602     0.8206     0.0395
 13 H      0.6387     1.0000     0.3613     0.8496     0.8110     0.0386

  Mayer bond orders larger than 0.1
B(  0-C ,  1-C ) :   1.3641 B(  0-C ,  2-Cl) :   0.2700 B(  0-C ,  5-H ) :   0.8896 
B(  0-C ,  7-C ) :   0.9218 B(  1-C ,  4-H ) :   0.3250 B(  1-C ,  6-H ) :   0.8962 
B(  1-C , 11-N ) :   0.9049 B(  3-Cl,  4-H ) :   0.4400 B(  7-C ,  8-H ) :   0.8879 
B(  7-C ,  9-H ) :   0.9053 B(  7-C , 10-H ) :   0.8760 B( 11-N , 12-H ) :   0.8140 
B( 11-N , 13-H ) :   0.7978 


----------------------------------
MP2 DERIVATIVE INTEGRAL GENERATION
----------------------------------


Input Wavefunction Amplitudes       ... run.mp2tsaa.tmp.proc0
Input Correlated Electron Density   ... run.pmp2re
Input Energy Weighted Density       ... run.wmp2.tmp
Input SCF Electron Density          ... run.scfp.tmp

One-Electron Terms    ...
                        ... One-Electron Terms done
Prescreening matrices              ... done

Batch handling in the gradient evaluation:
Memory available                      ... 5000.0 MB
Memory per occupied orbital in Q2     ...    5.7 MB
Memory per occupied orbital in Q3     ...    0.0 MB
Total memory requirement per |i>      ...    5.7 MB
Max. Number of orbitals possible      ...    875
Number of orbitals treated per batch  ...     34
Number of batches to be done          ...      1
Batch   0: i=    0 ...    33

---------------------------------------
MP2 TOTAL ENERGY:    -1092.818068492 Eh
---------------------------------------

-----------------------------------
NORM OF THE MP2 GRADIENT:  0.003577
-----------------------------------

-------------------------   --------------------
FINAL SINGLE POINT ENERGY     -1092.818068492004
-------------------------   --------------------

------------------------------------------------------------------------------
                         ORCA GEOMETRY RELAXATION STEP
------------------------------------------------------------------------------

Reading the OPT-File                    .... done
Getting information on internals        .... done
Copying old internal coords+grads       .... done
Making the new internal coordinates     .... (new redundants).... done
Validating the new internal coordinates .... (new redundants).... done
Calculating the B-matrix                .... done
Calculating the G,G- and P matrices     .... done
Transforming gradient to internals      .... done
Projecting the internal gradient        .... done
Number of atoms                         ....  14
Number of internal coordinates          .... 103
Current Energy                          .... -1092.818068492 Eh
Current gradient norm                   ....     0.003577429 Eh/bohr
Maximum allowed component of the step   ....  0.010
Current trust radius                    ....  0.100
Evaluating the initial hessian          .... done
Projecting the Hessian                  .... done
Forming the augmented Hessian           .... done
Diagonalizing the augmented Hessian     .... done
Last element of RFO vector              ....  0.999986669
Lowest eigenvalues of augmented Hessian:
 -0.000007414  0.100000000  0.100055252  0.104330241  0.104769807
Length of the computed step             ....  0.005163554
The final length of the internal step   ....  0.005163554
Converting the step to cartesian space:
 Initial RMS(Int)=    0.0005087801
Transforming coordinates:
 Iter   0:  RMS(Cart)=    0.0005536086 RMS(Int)=    0.0005087032
 Iter   1:  RMS(Cart)=    0.0000002784 RMS(Int)=    0.0000002464
 Iter   2:  RMS(Cart)=    0.0000000002 RMS(Int)=    0.0000000004
done
Storing new coordinates                 .... done

                                .--------------------.
          ----------------------|Geometry convergence|-------------------------
          Item                value                   Tolerance       Converged
          ---------------------------------------------------------------------
          RMS gradient        0.0001647517            0.0005000000      YES
          MAX gradient        0.0008204380            0.0020000000      YES
          RMS step            0.0005087801            0.0070000000      YES
          MAX step            0.0019568961            0.0100000000      YES
          ........................................................
          Max(Bonds)      0.0010      Max(Angles)    0.04
          Max(Dihed)        0.07      Max(Improp)    0.00
          ---------------------------------------------------------------------

                    ***********************HURRAY********************
                    ***        THE OPTIMIZATION HAS CONVERGED     ***
                    *************************************************


    ---------------------------------------------------------------------------
                         Redundant Internal Coordinates

                          --- Optimized Parameters ---  
                            (Angstroem and degrees)

        Definition                    OldVal   dE/dq     Step     FinalVal
    ----------------------------------------------------------------------------
     1. B(C   1,C   0)                1.3736 -0.000587  0.0007    1.3743   
     2. B(Cl  2,C   1)                3.2583  0.000306 -0.0003    3.2580   
     3. B(Cl  2,C   0)                2.5809  0.000707 -0.0010    2.5799   
     4. B(H   4,Cl  3)                1.5835 -0.000584  0.0006    1.5842   
     5. B(H   4,C   1)                1.4037  0.000820 -0.0009    1.4029   
     6. B(H   5,Cl  2)                2.6276  0.000391 -0.0002    2.6274   
     7. B(H   5,C   0)                1.0848 -0.000109  0.0001    1.0849   
     8. B(H   6,C   1)                1.0915  0.000008 -0.0000    1.0915   
     9. B(C   7,C   0)                1.4903 -0.000001 -0.0001    1.4902   
    10. B(C   7,Cl  2)                3.2062  0.000458 -0.0005    3.2057   
    11. B(H   8,C   7)                1.0884 -0.000008  0.0000    1.0884   
    12. B(H   8,Cl  2)                2.9665  0.000060  0.0001    2.9666   
    13. B(H   9,C   7)                1.0910  0.000009 -0.0000    1.0910   
    14. B(H  10,C   7)                1.0981  0.000030 -0.0000    1.0980   
    15. B(N  11,C   1)                1.4392 -0.000077  0.0001    1.4393   
    16. B(H  12,N  11)                1.0132  0.000004 -0.0000    1.0132   
    17. B(H  13,N  11)                1.0158 -0.000010  0.0000    1.0158   
    18. B(H  13,Cl  2)                2.8754 -0.000015  0.0000    2.8755   
    19. A(H   5,C   0,C   7)          117.02  0.000008   -0.00    117.02   
    20. A(C   1,C   0,Cl  2)          106.96  0.000021    0.01    106.97   
    21. A(C   1,C   0,H   5)          116.59  0.000008   -0.00    116.59   
    22. A(Cl  2,C   0,C   7)          100.47 -0.000077    0.02    100.49   
    23. A(C   1,C   0,C   7)          122.65  0.000044   -0.02    122.63   
    24. A(Cl  2,C   0,H   5)           80.40 -0.000115    0.04     80.44   
    25. A(Cl  2,C   1,H   6)          108.75  0.000063   -0.03    108.71   
    26. A(Cl  2,C   1,H   4)          137.92 -0.000003    0.01    137.92   
    27. A(C   0,C   1,H   4)           90.50 -0.000099    0.03     90.53   
    28. A(C   0,C   1,Cl  2)           49.26  0.000103   -0.02     49.23   
    29. A(H   4,C   1,H   6)          100.25 -0.000033    0.02    100.26   
    30. A(Cl  2,C   1,N  11)           89.92 -0.000032   -0.00     89.92   
    31. A(C   0,C   1,N  11)          120.97  0.000035   -0.01    120.95   
    32. A(H   4,C   1,N  11)          104.84  0.000017    0.01    104.84   
    33. A(C   0,C   1,H   6)          117.44  0.000048   -0.02    117.42   
    34. A(H   6,C   1,N  11)          115.15 -0.000024    0.00    115.16   
    35. A(C   0,Cl  2,C   1)           23.78 -0.000124    0.01     23.79   
    36. A(C   0,Cl  2,C   7)           27.20 -0.000032    0.00     27.20   
    37. A(C   1,Cl  2,C   7)           45.75 -0.000133    0.01     45.76   
    38. A(C   1,H   4,Cl  3)          166.98 -0.000120    0.03    167.02   
    39. A(Cl  2,C   7,H   9)           97.54 -0.000033    0.01     97.55   
    40. A(Cl  2,C   7,H   8)           67.56 -0.000181    0.03     67.59   
    41. A(C   0,C   7,Cl  2)           52.33  0.000108   -0.02     52.31   
    42. A(H   9,C   7,H  10)          108.74 -0.000029    0.01    108.75   
    43. A(H   8,C   7,H  10)          109.02  0.000093   -0.00    109.02   
    44. A(C   0,C   7,H  10)          109.13  0.000017   -0.02    109.11   
    45. A(H   8,C   7,H   9)          108.82  0.000020   -0.00    108.82   
    46. A(C   0,C   7,H   9)          111.13 -0.000024    0.00    111.14   
    47. A(C   0,C   7,H   8)          109.96 -0.000074    0.01    109.97   
    48. A(Cl  2,C   7,H  10)          152.72  0.000085   -0.03    152.69   
    49. A(H  12,N  11,H  13)          109.21 -0.000008    0.01    109.22   
    50. A(C   1,N  11,H  13)          106.97 -0.000068    0.02    106.99   
    51. A(C   1,N  11,H  12)          110.84  0.000051   -0.01    110.83   
    52. D(Cl  2,C   1,C   0,C   7)    114.90 -0.000057    0.03    114.92   
    53. D(H   6,C   1,C   0,C   7)     23.14 -0.000156    0.07     23.21   
    54. D(N  11,C   1,C   0,Cl  2)     58.72  0.000019   -0.01     58.71   
    55. D(H   6,C   1,C   0,Cl  2)    -91.76 -0.000100    0.04    -91.71   
    56. D(H   6,C   1,C   0,H   5)   -179.33  0.000020   -0.01   -179.34   
    57. D(N  11,C   1,C   0,H   5)    -28.86  0.000139   -0.06    -28.91   
    58. D(H   4,C   1,C   0,Cl  2)    166.42 -0.000016    0.01    166.43   
    59. D(Cl  2,C   1,C   0,H   5)    -87.58  0.000120   -0.05    -87.63   
    60. D(N  11,C   1,C   0,C   7)    173.62 -0.000037    0.01    173.63   
    61. D(H   4,C   1,C   0,H   5)     78.84  0.000104   -0.04     78.80   
    62. D(H   4,C   1,C   0,C   7)    -78.69 -0.000072    0.04    -78.65   
    63. D(C   7,Cl  2,C   0,C   1)    129.04  0.000020   -0.01    129.03   
    64. D(C   1,Cl  2,C   0,H   5)    115.02 -0.000022    0.01    115.03   
    65. D(C   7,Cl  2,C   0,H   5)   -115.94 -0.000002    0.00   -115.93   
    66. D(C   7,Cl  2,C   1,N  11)   -162.59 -0.000039    0.00   -162.58   
    67. D(C   1,Cl  2,C   0,C   7)   -129.04 -0.000020    0.01   -129.03   
    68. D(C   7,Cl  2,C   1,H   4)    -50.23 -0.000052    0.02    -50.21   
    69. D(C   0,Cl  2,C   1,N  11)   -132.88 -0.000010    0.00   -132.87   
    70. D(C   7,Cl  2,C   1,H   6)     80.77 -0.000012    0.00     80.78   
    71. D(C   0,Cl  2,C   1,H   6)    110.48  0.000017    0.00    110.49   
    72. D(C   0,Cl  2,C   1,H   4)    -20.51 -0.000023    0.01    -20.50   
    73. D(C   7,Cl  2,C   1,C   0)    -29.71 -0.000029    0.00    -29.71   
    74. D(Cl  3,H   4,C   1,Cl  2)   -137.55  0.000034   -0.01   -137.56   
    75. D(Cl  3,H   4,C   1,N  11)    -30.63  0.000002   -0.00    -30.63   
    76. D(Cl  3,H   4,C   1,H   6)     89.03 -0.000032    0.01     89.04   
    77. D(Cl  3,H   4,C   1,C   0)   -152.95 -0.000007    0.00   -152.94   
    78. D(H   9,C   7,C   0,C   1)    -35.01  0.000037   -0.02    -35.03   
    79. D(H   8,C   7,C   0,Cl  2)    -37.49  0.000066   -0.00    -37.50   
    80. D(H   8,C   7,C   0,H   5)     46.99 -0.000100    0.05     47.04   
    81. D(H   9,C   7,C   0,H   5)    167.55 -0.000140    0.06    167.61   
    82. D(H   8,C   7,C   0,C   1)   -155.57  0.000077   -0.03   -155.59   
    83. D(H  10,C   7,Cl  2,C   1)     79.50  0.000091   -0.04     79.46   
    84. D(H   9,C   7,Cl  2,C   1)    -85.00 -0.000061    0.01    -84.99   
    85. D(H   9,C   7,Cl  2,C   0)   -110.93  0.000021    0.00   -110.93   
    86. D(H   8,C   7,Cl  2,C   1)    167.69 -0.000095    0.02    167.71   
    87. D(H   8,C   7,Cl  2,C   0)    141.76 -0.000012    0.01    141.77   
    88. D(C   0,C   7,Cl  2,C   1)     25.93 -0.000082    0.01     25.94   
    89. D(Cl  2,C   7,C   0,H   5)     84.49 -0.000166    0.05     84.54   
    90. D(Cl  2,C   7,C   0,C   1)   -118.08  0.000010   -0.02   -118.10   
    91. D(H  10,C   7,C   0,Cl  2)   -157.03 -0.000013    0.01   -157.02   
    92. D(H  10,C   7,C   0,H   5)    -72.54 -0.000180    0.06    -72.48   
    93. D(H  10,C   7,Cl  2,C   0)     53.57  0.000174   -0.06     53.52   
    94. D(H  10,C   7,C   0,C   1)     84.89 -0.000003   -0.01     84.88   
    95. D(H   9,C   7,C   0,Cl  2)     83.06  0.000027    0.00     83.07   
    96. D(H  13,N  11,C   1,Cl  2)      6.64  0.000024   -0.00      6.64   
    97. D(H  13,N  11,C   1,H   6)    117.40  0.000075   -0.04    117.36   
    98. D(H  13,N  11,C   1,H   4)   -133.48  0.000035   -0.01   -133.49   
    99. D(H  13,N  11,C   1,C   0)    -33.71 -0.000061    0.02    -33.69   
   100. D(H  12,N  11,C   1,Cl  2)    125.61  0.000002    0.01    125.62   
   101. D(H  12,N  11,C   1,H   6)   -123.64  0.000052   -0.03   -123.66   
   102. D(H  12,N  11,C   1,H   4)    -14.51  0.000013   -0.00    -14.51   
   103. D(H  12,N  11,C   1,C   0)     85.25 -0.000084    0.03     85.28   
    ----------------------------------------------------------------------------
                 *******************************************************
                 *** FINAL ENERGY EVALUATION AT THE STATIONARY POINT ***
                 ***               (AFTER    1 CYCLES)               ***
                 *******************************************************
---------------------------------
CARTESIAN COORDINATES (ANGSTROEM)
---------------------------------
  C     -0.266370   -0.124338   -0.181235
  C     -0.234583   -0.093707    1.192370
  Cl     2.167072    0.138059   -0.996843
  Cl    -3.127214    0.437039    1.591957
  H     -1.626120    0.079330    1.233764
  H     -0.347856    0.832230   -0.686482
  H     -0.141673   -1.047759    1.714481
  C     -0.680863   -1.332734   -0.948560
  H     -0.242989   -1.308837   -1.944750
  H     -0.361641   -2.246709   -0.445640
  H     -1.775123   -1.343311   -1.038881
  N      0.299356    1.043094    1.895353
  H     -0.408573    1.758113    2.014356
  H      1.056793    1.413554    1.328804

----------------------------
CARTESIAN COORDINATES (A.U.)
----------------------------
  NO LB      ZA    FRAG     MASS         X           Y           Z
   0 C     6.0000    0    12.011   -0.503366   -0.234965   -0.342484
   1 C     6.0000    0    12.011   -0.443298   -0.177080    2.253253
[...]
      dxy     :     0.010150
  3 Cls       :     5.973287  s :     5.973287
      pz      :     3.961352  p :    11.633639
      px      :     3.711099
      py      :     3.961188
      dz2     :     0.011146  d :     0.056962
      dxz     :     0.011102
      dyz     :     0.009900
      dx2y2   :     0.013717
      dxy     :     0.011097
  4 H s       :     0.673510  s :     0.673510
  5 H s       :     0.734903  s :     0.734903
  6 H s       :     0.774166  s :     0.774166
  7 C s       :     3.340990  s :     3.340990
      pz      :     1.111662  p :     3.192654
      px      :     1.088106
      py      :     0.992886
      dz2     :     0.020190  d :     0.088903
      dxz     :     0.012837
      dyz     :     0.019865
      dx2y2   :     0.025767
      dxy     :     0.010243
  8 H s       :     0.742605  s :     0.742605
  9 H s       :     0.779812  s :     0.779812
 10 H s       :     0.768103  s :     0.768103
 11 N s       :     3.682870  s :     3.682870
      pz      :     1.691574  p :     4.099145
      px      :     1.244395
      py      :     1.163176
      dz2     :     0.008349  d :     0.056252
      dxz     :     0.012141
      dyz     :     0.011191
      dx2y2   :     0.006613
      dxy     :     0.017958
 12 H s       :     0.663351  s :     0.663351
 13 H s       :     0.630687  s :     0.630687


                     *******************************
                     * LOEWDIN POPULATION ANALYSIS *
                     *******************************

----------------------
LOEWDIN ATOMIC CHARGES
----------------------
   0 C :    0.045539
   1 C :   -0.245254
   2 Cl:   -0.751152
   3 Cl:   -0.566646
   4 H :    0.183895
   5 H :    0.128788
   6 H :    0.104308
   7 C :   -0.286599
   8 H :    0.126525
   9 H :    0.113876
  10 H :    0.121772
  11 N :   -0.371490
  12 H :    0.193754
  13 H :    0.202683

-------------------------------
LOEWDIN REDUCED ORBITAL CHARGES
-------------------------------
  0 C s       :     2.891670  s :     2.891670
      pz      :     1.107795  p :     2.885729
      px      :     0.683836
      py      :     1.094098
      dz2     :     0.044096  d :     0.177062
      dxz     :     0.037176
      dyz     :     0.053670
      dx2y2   :     0.026923
      dxy     :     0.015197
  1 C s       :     2.844789  s :     2.844789
      pz      :     1.063746  p :     3.183703
      px      :     1.099719
      py      :     1.020238
      dz2     :     0.064993  d :     0.216763
      dxz     :     0.024278
      dyz     :     0.064531
      dx2y2   :     0.040320
      dxy     :     0.022640
  2 Cls       :     5.939985  s :     5.939985
      pz      :     3.950144  p :    11.759462
      px      :     3.842185
      py      :     3.967134
      dz2     :     0.010096  d :     0.051705
      dxz     :     0.010676
      dyz     :     0.009876
      dx2y2   :     0.010790
      dxy     :     0.010267
  3 Cls       :     5.863321  s :     5.863321
      pz      :     3.962536  p :    11.644799
      px      :     3.720533
      py      :     3.961730
      dz2     :     0.011397  d :     0.058526
      dxz     :     0.011350
      dyz     :     0.009923
      dx2y2   :     0.014468
      dxy     :     0.011388
  4 H s       :     0.816105  s :     0.816105
  5 H s       :     0.871212  s :     0.871212
  6 H s       :     0.895692  s :     0.895692
  7 C s       :     2.883491  s :     2.883491
      pz      :     1.102169  p :     3.272666
      px      :     1.096790
      py      :     1.073707
      dz2     :     0.028388  d :     0.130442
      dxz     :     0.016509
      dyz     :     0.031928
      dx2y2   :     0.038469
      dxy     :     0.015148
  8 H s       :     0.873475  s :     0.873475
  9 H s       :     0.886124  s :     0.886124
 10 H s       :     0.878228  s :     0.878228
 11 N s       :     3.191168  s :     3.191168
      pz      :     1.639790  p :     4.106666
      px      :     1.255341
      py      :     1.211535
      dz2     :     0.009391  d :     0.073655
      dxz     :     0.014083
      dyz     :     0.015767
      dx2y2   :     0.010042
      dxy     :     0.024372
 12 H s       :     0.806246  s :     0.806246
 13 H s       :     0.797317  s :     0.797317


                      *****************************
                      * MAYER POPULATION ANALYSIS *
                      *****************************

  NA   - Mulliken gross atomic population
  ZA   - Total nuclear charge
  QA   - Mulliken gross atomic charge
  VA   - Mayer's total valence
  BVA  - Mayer's bonded valence
  FA   - Mayer's free valence

  ATOM       NA         ZA         QA         VA         BVA        FA
  0 C      6.0638     6.0000    -0.0638     3.6948     3.3658     0.3290
  1 C      6.2317     6.0000    -0.2317     3.6134     3.2775     0.3359
  2 Cl    17.8127    17.0000    -0.8127     0.6538     0.2380     0.4157
  3 Cl    17.6639    17.0000    -0.6639     0.8381     0.4321     0.4060
  4 H      0.6735     1.0000     0.3265     0.8412     0.7844     0.0568
  5 H      0.7349     1.0000     0.2651     0.8966     0.8591     0.0375
  6 H      0.7742     1.0000     0.2258     0.9246     0.8847     0.0399
  7 C      6.6225     6.0000    -0.6225     3.7857     3.5111     0.2746
  8 H      0.7426     1.0000     0.2574     0.9015     0.8645     0.0370
  9 H      0.7798     1.0000     0.2202     0.9174     0.8799     0.0374
 10 H      0.7681     1.0000     0.2319     0.9051     0.8653     0.0398
 11 N      7.8383     7.0000    -0.8383     2.7966     2.4605     0.3361
 12 H      0.6634     1.0000     0.3366     0.8549     0.8147     0.0401
 13 H      0.6307     1.0000     0.3693     0.8387     0.7992     0.0395

  Mayer bond orders larger than 0.1
B(  0-C ,  1-C ) :   1.2937 B(  0-C ,  2-Cl) :   0.2521 B(  0-C ,  5-H ) :   0.8854 
B(  0-C ,  7-C ) :   0.9025 B(  1-C ,  4-H ) :   0.3555 B(  1-C ,  6-H ) :   0.9082 
B(  1-C , 11-N ) :   0.8517 B(  3-Cl,  4-H ) :   0.3929 B(  7-C ,  8-H ) :   0.8932 
B(  7-C ,  9-H ) :   0.9102 B(  7-C , 10-H ) :   0.8806 B( 11-N , 12-H ) :   0.8153 
B( 11-N , 13-H ) :   0.7989 


                *******************************************
                * RELAXED MP2 DENSITY POPULATION ANALYSIS *
                *******************************************

------------------------------------------------------------------------------
                           ORCA POPULATION ANALYSIS
------------------------------------------------------------------------------
Input electron density              ... run.pmp2re
BaseName (.gbw .S,...)              ... run

                    ********************************
                    * MULLIKEN POPULATION ANALYSIS *
                    ********************************

-----------------------
MULLIKEN ATOMIC CHARGES
-----------------------
   0 C :   -0.118389
   1 C :   -0.222566
   2 Cl:   -0.763266
   3 Cl:   -0.600839
   4 H :    0.290418
   5 H :    0.243209
   6 H :    0.225577
   7 C :   -0.660834
   8 H :    0.257574
   9 H :    0.221767
  10 H :    0.229354
  11 N :   -0.792072
  12 H :    0.328894
  13 H :    0.361171
Sum of atomic charges:   -1.0000000

--------------------------------
MULLIKEN REDUCED ORBITAL CHARGES
--------------------------------
  0 C s       :     3.300322  s :     3.300322
      pz      :     0.921983  p :     2.727639
      px      :     0.790181
      py      :     1.015476
      dz2     :     0.020329  d :     0.090428
      dxz     :     0.018095
      dyz     :     0.026958
      dx2y2   :     0.015828
      dxy     :     0.009217
  1 C s       :     3.212790  s :     3.212790
      pz      :     0.884519  p :     2.901414
      px      :     1.032265
      py      :     0.984631
      dz2     :     0.026804  d :     0.108362
      dxz     :     0.016171
      dyz     :     0.032688
      dx2y2   :     0.020898
      dxy     :     0.011802
  2 Cls       :     5.979575  s :     5.979575
      pz      :     3.948041  p :    11.732804
      px      :     3.816284
      py      :     3.968480
      dz2     :     0.010008  d :     0.050887
      dxz     :     0.010409
      dyz     :     0.009824
      dx2y2   :     0.010487
      dxy     :     0.010159
  3 Cls       :     5.968272  s :     5.968272
      pz      :     3.957451  p :    11.575235
      px      :     3.662494
      py      :     3.955291
      dz2     :     0.011224  d :     0.057332
      dxz     :     0.011120
      dyz     :     0.009897
      dx2y2   :     0.013934
      dxy     :     0.011157
  4 H s       :     0.709582  s :     0.709582
  5 H s       :     0.756791  s :     0.756791
  6 H s       :     0.774423  s :     0.774423
  7 C s       :     3.329207  s :     3.329207
      pz      :     1.134020  p :     3.253443
      px      :     1.096613
      py      :     1.022810
      dz2     :     0.018046  d :     0.078184
      dxz     :     0.011471
      dyz     :     0.016651
      dx2y2   :     0.022398
      dxy     :     0.009618
  8 H s       :     0.742426  s :     0.742426
  9 H s       :     0.778233  s :     0.778233
 10 H s       :     0.770646  s :     0.770646
 11 N s       :     3.655219  s :     3.655219
      pz      :     1.681572  p :     4.084690
      px      :     1.242710
      py      :     1.160409
      dz2     :     0.008330  d :     0.052163
      dxz     :     0.011326
      dyz     :     0.010393
      dx2y2   :     0.006173
      dxy     :     0.015942
 12 H s       :     0.671106  s :     0.671106
 13 H s       :     0.638829  s :     0.638829


                     *******************************
                     * LOEWDIN POPULATION ANALYSIS *
                     *******************************

----------------------
LOEWDIN ATOMIC CHARGES
----------------------
   0 C :   -0.034915
   1 C :   -0.232403
   2 Cl:   -0.713477
   3 Cl:   -0.515700
   4 H :    0.174344
   5 H :    0.122224
   6 H :    0.110412
   7 C :   -0.319456
   8 H :    0.131171
   9 H :    0.118477
  10 H :    0.124629
  11 N :   -0.367747
  12 H :    0.196662
  13 H :    0.205779

-------------------------------
LOEWDIN REDUCED ORBITAL CHARGES
-------------------------------
  0 C s       :     2.885946  s :     2.885946
      pz      :     1.094885  p :     2.979887
      px      :     0.801347
      py      :     1.083655
      dz2     :     0.043985  d :     0.169082
      dxz     :     0.032940
      dyz     :     0.051743
      dx2y2   :     0.025164
      dxy     :     0.015249
  1 C s       :     2.851656  s :     2.851656
      pz      :     1.085047  p :     3.170250
      px      :     1.059251
      py      :     1.025952
      dz2     :     0.060197  d :     0.210497
      dxz     :     0.026637
      dyz     :     0.063472
      dx2y2   :     0.038186
      dxy     :     0.022006
  2 Cls       :     5.941695  s :     5.941695
      pz      :     3.943005  p :    11.719914
      px      :     3.812240
      py      :     3.964668
      dz2     :     0.010106  d :     0.051868
      dxz     :     0.010735
      dyz     :     0.009883
      dx2y2   :     0.010864
      dxy     :     0.010280
  3 Cls       :     5.863961  s :     5.863961
      pz      :     3.959877  p :    11.592828
      px      :     3.675465
      py      :     3.957486
      dz2     :     0.011474  d :     0.058911
      dxz     :     0.011376
      dyz     :     0.009921
      dx2y2   :     0.014681
      dxy     :     0.011459
  4 H s       :     0.825656  s :     0.825656
  5 H s       :     0.877776  s :     0.877776
  6 H s       :     0.889588  s :     0.889588
  7 C s       :     2.886458  s :     2.886458
      pz      :     1.115618  p :     3.312599
      px      :     1.105592
      py      :     1.091389
      dz2     :     0.026479  d :     0.120399
      dxz     :     0.015385
      dyz     :     0.028325
      dx2y2   :     0.035261
      dxy     :     0.014949
  8 H s       :     0.868829  s :     0.868829
  9 H s       :     0.881523  s :     0.881523
 10 H s       :     0.875371  s :     0.875371
 11 N s       :     3.190816  s :     3.190816
      pz      :     1.633275  p :     4.107045
      px      :     1.258797
      py      :     1.214972
      dz2     :     0.009431  d :     0.069886
      dxz     :     0.013326
      dyz     :     0.015084
      dx2y2   :     0.009555
      dxy     :     0.022490
 12 H s       :     0.803338  s :     0.803338
 13 H s       :     0.794221  s :     0.794221


                      *****************************
                      * MAYER POPULATION ANALYSIS *
                      *****************************

  NA   - Mulliken gross atomic population
  ZA   - Total nuclear charge
  QA   - Mulliken gross atomic charge
  VA   - Mayer's total valence
  BVA  - Mayer's bonded valence
  FA   - Mayer's free valence

  ATOM       NA         ZA         QA         VA         BVA        FA
  0 C      6.1184     6.0000    -0.1184     3.8194     3.5244     0.2949
  1 C      6.2226     6.0000    -0.2226     3.7274     3.4098     0.3176
  2 Cl    17.7633    17.0000    -0.7633     0.7343     0.3284     0.4059
  3 Cl    17.6008    17.0000    -0.6008     0.9267     0.5316     0.3951
  4 H      0.7096     1.0000     0.2904     0.8628     0.8083     0.0545
  5 H      0.7568     1.0000     0.2432     0.9104     0.8744     0.0360
  6 H      0.7744     1.0000     0.2256     0.9237     0.8849     0.0389
  7 C      6.6608     6.0000    -0.6608     3.8090     3.5384     0.2707
  8 H      0.7424     1.0000     0.2576     0.9027     0.8665     0.0362
  9 H      0.7782     1.0000     0.2218     0.9152     0.8785     0.0367
 10 H      0.7706     1.0000     0.2294     0.9050     0.8664     0.0386
 11 N      7.7921     7.0000    -0.7921     2.8693     2.5386     0.3307
 12 H      0.6711     1.0000     0.3289     0.8602     0.8206     0.0395
 13 H      0.6388     1.0000     0.3612     0.8496     0.8110     0.0386

  Mayer bond orders larger than 0.1
B(  0-C ,  1-C ) :   1.3630 B(  0-C ,  2-Cl) :   0.2712 B(  0-C ,  5-H ) :   0.8895 
B(  0-C ,  7-C ) :   0.9218 B(  1-C ,  4-H ) :   0.3259 B(  1-C ,  6-H ) :   0.8961 
B(  1-C , 11-N ) :   0.9049 B(  3-Cl,  4-H ) :   0.4391 B(  7-C ,  8-H ) :   0.8879 
B(  7-C ,  9-H ) :   0.9053 B(  7-C , 10-H ) :   0.8759 B( 11-N , 12-H ) :   0.8140 
B( 11-N , 13-H ) :   0.7978 


----------------------------------
MP2 DERIVATIVE INTEGRAL GENERATION
----------------------------------


Input Wavefunction Amplitudes       ... run.mp2tsaa.tmp.proc0
Input Correlated Electron Density   ... run.pmp2re
Input Energy Weighted Density       ... run.wmp2.tmp
Input SCF Electron Density          ... run.scfp.tmp

One-Electron Terms    ...
                        ... One-Electron Terms done
Prescreening matrices              ... done

Batch handling in the gradient evaluation:
Memory available                      ... 5000.0 MB
Memory per occupied orbital in Q2     ...    5.7 MB
Memory per occupied orbital in Q3     ...    0.0 MB
Total memory requirement per |i>      ...    5.7 MB
Max. Number of orbitals possible      ...    875
Number of orbitals treated per batch  ...     34
Number of batches to be done          ...      1
Batch   0: i=    0 ...    33

---------------------------------------
MP2 TOTAL ENERGY:    -1092.818075747 Eh
---------------------------------------

-----------------------------------
NORM OF THE MP2 GRADIENT:  0.003637
-----------------------------------

-------------------------   --------------------
FINAL SINGLE POINT ENERGY     -1092.818075746736
-------------------------   --------------------

                                *** OPTIMIZATION RUN DONE ***

                            ***************************************
                            *     ORCA property calculations      *
                            ***************************************

                                    ---------------------
                                    Active property flags
                                    ---------------------
   (+) Dipole Moment


------------------------------------------------------------------------------
                       ORCA ELECTRIC PROPERTIES CALCULATION
------------------------------------------------------------------------------

Dipole Moment Calculation                       ... on
Quadrupole Moment Calculation                   ... off
Polarizability Calculation                      ... off
GBWName                                         ... run.gbw
Electron density file                           ... run.scfp.tmp
The origin for moment calculation is the CENTER OF MASS  = (-0.701921,  0.212320  0.741058)

-------------
DIPOLE MOMENT
-------------
                                X             Y             Z
Electronic contribution:     -0.52863       2.63139       0.47041
Nuclear contribution   :     -0.52622      -3.05663      -0.63990
                        -----------------------------------------
Total Dipole Moment    :     -1.05485      -0.42523      -0.16949
                        -----------------------------------------
Magnitude (a.u.)       :      1.14989
Magnitude (Debye)      :      2.92280


                         *** MP2 UNRELAXED DENSITY ***

------------------------------------------------------------------------------
                       ORCA ELECTRIC PROPERTIES CALCULATION
------------------------------------------------------------------------------

Dipole Moment Calculation                       ... on
Quadrupole Moment Calculation                   ... off
Polarizability Calculation                      ... off
GBWName                                         ... run.gbw
Electron density file                           ... run.pmp2ur
The origin for moment calculation is the CENTER OF MASS  = (-0.701921,  0.212320  0.741058)

-------------
DIPOLE MOMENT
-------------
                                X             Y             Z
Electronic contribution:     -0.52683       2.64204       0.49576
Nuclear contribution   :     -0.52622      -3.05663      -0.63990
                        -----------------------------------------
Total Dipole Moment    :     -1.05305      -0.41459      -0.14414
                        -----------------------------------------
Magnitude (a.u.)       :      1.14086
Magnitude (Debye)      :      2.89984


                           *** MP2 RELAXED DENSITY ***

------------------------------------------------------------------------------
                       ORCA ELECTRIC PROPERTIES CALCULATION
------------------------------------------------------------------------------

Dipole Moment Calculation                       ... on
Quadrupole Moment Calculation                   ... off
Polarizability Calculation                      ... off
GBWName                                         ... run.gbw
Electron density file                           ... run.pmp2re
The origin for moment calculation is the CENTER OF MASS  = (-0.701921,  0.212320  0.741058)

-------------
DIPOLE MOMENT
-------------
                                X             Y             Z
Electronic contribution:     -0.60579       2.75444       0.70689
Nuclear contribution   :     -0.52622      -3.05663      -0.63990
                        -----------------------------------------
Total Dipole Moment    :     -1.13201      -0.30219       0.06698
                        -----------------------------------------
Magnitude (a.u.)       :      1.17356
Magnitude (Debye)      :      2.98296


Timings for individual modules:

Sum of individual times         ...      342.988 sec (=   5.716 min)
GTO integral calculation        ...        0.630 sec (=   0.010 min)   0.2 %
SCF iterations                  ...      140.507 sec (=   2.342 min)  41.0 %
MP2 module                      ...      201.768 sec (=   3.363 min)  58.8 %
Geometry relaxation             ...        0.083 sec (=   0.001 min)   0.0 %
                             ****ORCA TERMINATED NORMALLY****
TOTAL RUN TIME: 0 days 0 hours 5 minutes 43 seconds 457 msec
