
                                 *****************
                                 * O   R   C   A *
                                 *****************

           --- An Ab Initio, DFT and Semiempirical electronic structure package ---

                  #######################################################
                  #                        -***-                        #
                  #  Department of molecular theory and spectroscopy    #
                  #              Directorship: Frank Neese              #
                  # Max Planck Institute for Chemical Energy Conversion #
                  #                  D-45470 Muelheim/Ruhr              #
                  #                       Germany                       #
                  #                                                     #
                  #                  All rights reserved                #
                  #                        -***-                        #
                  #######################################################


                         Program Version 4.0.1.2 - RELEASE -


 With contributions from (in alphabetic order):
   Daniel Aravena         : Magnetic Properties
   Michael Atanasov       : Ab Initio Ligand Field Theory
   Ute Becker             : Parallelization
   Martin Brehm           : Molecular dynamics
   Dmytro Bykov           : SCF Hessian
   Vijay G. Chilkuri      : MRCI spin determinant printing
   Dipayan Datta          : RHF DLPNO-CCSD density
   Achintya Kumar Dutta   : EOM-CC, STEOM-CC
   Dmitry Ganyushin       : Spin-Orbit,Spin-Spin,Magnetic field MRCI
   Yang Guo               : DLPNO-NEVPT2, CIM, IAO-localization
   Andreas Hansen         : Spin unrestricted coupled pair/coupled cluster methods
   Lee Huntington         : MR-EOM, pCC
   Robert Izsak           : Overlap fitted RIJCOSX, COSX-SCS-MP3, EOM
   Christian Kollmar      : KDIIS, OOCD, Brueckner-CCSD(T), CCSD density
   Simone Kossmann        : Meta GGA functionals, TD-DFT gradient, OOMP2, MP2 Hessian
   Martin Krupicka        : AUTO-CI
   Dagmar Lenk            : GEPOL surface
   Dimitrios Liakos       : Extrapolation schemes; parallel MDCI
   Dimitrios Manganas     : ROCIS; embedding schemes
   Dimitrios Pantazis     : SARC Basis sets
   Taras Petrenko         : DFT Hessian,TD-DFT gradient, ASA, ECA, R-Raman, ABS, FL, XAS/XES, NRVS
   Peter Pinski           : DLPNO-MP2
   Christoph Reimann      : Effective Core Potentials
   Marius Retegan         : Local ZFS, SOC
   Christoph Riplinger    : Optimizer, TS searches, QM/MM, DLPNO-CCSD(T), (RO)-DLPNO pert. Triples
   Tobias Risthaus        : Range-separated hybrids, TD-DFT gradient, RPA, STAB
   Michael Roemelt        : Restricted open shell CIS
   Masaaki Saitow         : Open-shell DLPNO
   Barbara Sandhoefer     : DKH picture change effects
   Kantharuban Sivalingam : CASSCF convergence, NEVPT2, FIC-MRCI
   Georgi Stoychev        : AutoAux
   Boris Wezisla          : Elementary symmetry handling
   Frank Wennmohs         : Technical directorship


 We gratefully acknowledge several colleagues who have allowed us to
 interface, adapt or use parts of their codes:
   Stefan Grimme, W. Hujo, H. Kruse,             : VdW corrections, initial TS optimization,
                  C. Bannwarth                     DFT functionals, gCP, sTDA/sTD-DF
   Ed Valeev                                     : LibInt (2-el integral package), F12 methods
   Garnet Chan, S. Sharma, J. Yang, R. Olivares  : DMRG
   Ulf Ekstrom                                   : XCFun DFT Library
   Mihaly Kallay                                 : mrcc  (arbitrary order and MRCC methods)
   Andreas Klamt, Michael Diedenhofen            : otool_cosmo (COSMO solvation model)
   Jiri Pittner, Ondrej Demel                    : Mk-CCSD
   Frank Weinhold                                : gennbo (NPA and NBO analysis)
   Christopher J. Cramer and Donald G. Truhlar   : smd solvation model


 Your calculation uses the libint2 library for the computation of 2-el integrals
 For citations please refer to: http://libint.valeyev.net

 This ORCA versions uses:
   CBLAS   interface :  Fast vector & matrix operations
   LAPACKE interface :  Fast linear algebra routines
   SCALAPACK package :  Parallel linear algebra routines




*****************************************
The coordinations will be read from file: inp.xyz
*****************************************


Your calculation utilizes the basis: 6-311G(d)
   H, Li - Ne  : R. Krishnan, J. S. Binkley, R. Seeger and J. A. Pople, J. Chem. Phys. 72, 650 (1980).
   Na - Ar     : A. D. McLean and G. S. Chandler J. Chem. Phys. 72, 5639, (1980).
   K  - Ca     : J.-P. Blaudeau, M. P. McGrath, L. A. Curtiss and L. Radom, J. Chem. Phys. 107, 5016 (1997).
   Ga - Kr     : L. A. Curtiss, M. P. McGrath, J.-P. Blandeau, N. E. Davis, R. C. Binning and L. Radom, J. Chem. Phys. 103, 6104 (1995).
   Pol./Diff.
   H, Li - Cl  : T. Clark, J. Chandrasekhar and P. v. R. Schleyer, J. Comp. Chem. 4, 294 (1983).
   H - Ne      : M. J. Frisch, J. A. Pople and J. S. Binkley, J. Chem. Phys. 80, 3265 (1984).

================================================================================
                                        WARNINGS
                       Please study these warnings very carefully!
================================================================================

WARNING: Gradients needed for Numerical Frequencies
  ===> : Setting RunTyp to EnGrad
Warning: TCutStore was < 0. Adjusted to Thresh (uncritical)

WARNING: Post HF methods need fully converged wavefunctions
  ===> : Setting SCFConvForced true
         You can overwrite this default with %scf ConvForced false 


INFO   : the flag for use of LIBINT has been found!

================================================================================
                                       INPUT FILE
================================================================================
NAME = run.inp
|  1> ! MP2 6-311G(d) NoFrozenCore ExtremeSCF NumFreq
|  2> 
|  3> %pal nprocs 1
|  4> end
|  5> 
|  6> %mp2 MaxCore 10000
|  7> end
|  8> 
|  9> %freq 
| 10> restart true
| 11> end
| 12> 
| 13> %geom
| 14> Calc_Hess true
| 15> NumHess true
| 16> end
| 17> 
| 18> *xyzfile -1 1 inp.xyz
| 19> 
| 20>                          ****END OF INPUT****
================================================================================

                     *******************************
                     * Energy+Gradient Calculation *
                     *******************************

---------------------------------
CARTESIAN COORDINATES (ANGSTROEM)
---------------------------------
  C     -0.270038   -0.124375   -0.178851
  C     -0.232011   -0.094210    1.191373
  Cl     2.168583    0.138568   -0.997662
  Cl    -3.126878    0.437540    1.592113
  H     -1.654833    0.085307    1.234499
  H     -0.344913    0.831861   -0.685531
  H     -0.146312   -1.047385    1.716218
  C     -0.681394   -1.332911   -0.948353
  H     -0.240581   -1.307895   -1.943248
  H     -0.361320   -2.246784   -0.445548
  H     -1.775333   -1.346917   -1.042193
  N      0.299246    1.042797    1.895302
  H     -0.408076    1.758559    2.013949
  H      1.056219    1.413245    1.327811

----------------------------
CARTESIAN COORDINATES (A.U.)
----------------------------
  NO LB      ZA    FRAG     MASS         X           Y           Z
   0 C     6.0000    0    12.011   -0.510299   -0.235035   -0.337979
   1 C     6.0000    0    12.011   -0.438438   -0.178031    2.251369
   2 Cl   17.0000    0    35.453    4.098028    0.261855   -1.885308
   3 Cl   17.0000    0    35.453   -5.908943    0.826830    3.008658
   4 H     1.0000    0     1.008   -3.127181    0.161207    2.332866
   5 H     1.0000    0     1.008   -0.651790    1.571989   -1.295465
   6 H     1.0000    0     1.008   -0.276490   -1.979271    3.243182
   7 C     6.0000    0    12.011   -1.287648   -2.518836   -1.792127
   8 H     1.0000    0     1.008   -0.454632   -2.471563   -3.672207
   9 H     1.0000    0     1.008   -0.682796   -4.245807   -0.841964
  10 H     1.0000    0     1.008   -3.354893   -2.545304   -1.969460
  11 N     7.0000    0    14.007    0.565493    1.970600    3.581602
  12 H     1.0000    0     1.008   -0.771151    3.323195    3.805812
  13 H     1.0000    0     1.008    1.995965    2.670646    2.509199

--------------------------------
INTERNAL COORDINATES (ANGSTROEM)
--------------------------------
 C      0   0   0     0.000000000000     0.00000000     0.00000000
 C      1   0   0     1.371083297548     0.00000000     0.00000000
 Cl     1   2   0     2.585820176855   106.74199360     0.00000000
 Cl     2   1   3     2.970454854308    96.41524691   163.28493282
 H      2   1   3     1.434750063446    90.30297680   166.33847685
 H      1   2   3     1.084766423944   116.69966633   272.88229161
 H      2   1   3     1.091489723639   117.61414228   267.73756739
 C      1   2   3     1.490605415761   122.77918052   114.60250269
 H      8   1   2     1.088466274310   109.96588668   204.88584615
 H      8   1   2     1.091065645135   111.11490673   325.36071933
 H      8   1   2     1.098045708887   109.23192744    85.30230150
 N      2   1   3     1.438935216586   121.09907174    58.99215530
 H     12   2   1     1.013260636385   110.96081804    84.86459035
 H     12   2   1     1.016015318434   106.85394356   325.98420675

---------------------------
INTERNAL COORDINATES (A.U.)
---------------------------
 C      0   0   0     0.000000000000     0.00000000     0.00000000
 C      1   0   0     2.590971939159     0.00000000     0.00000000
 Cl     1   2   0     4.886491965824   106.74199360     0.00000000
 Cl     2   1   3     5.613346167819    96.41524691   163.28493282
 H      2   1   3     2.711284690538    90.30297680   166.33847685
 H      1   2   3     2.049911460527   116.69966633   272.88229161
 H      2   1   3     2.062616655668   117.61414228   267.73756739
 C      1   2   3     2.816836009527   122.77918052   114.60250269
 H      8   1   2     2.056903164456   109.96588668   204.88584615
 H      8   1   2     2.061815263435   111.11490673   325.36071933
 H      8   1   2     2.075005672325   109.23192744    85.30230150
 N      2   1   3     2.719193483802   121.09907174    58.99215530
 H     12   2   1     1.914785105050   110.96081804    84.86459035
 H     12   2   1     1.919990699710   106.85394356   325.98420675

---------------------
BASIS SET INFORMATION
---------------------
There are 4 groups of distinct atoms

 Group   1 Type C   : 11s5p1d contracted to 4s3p1d pattern {6311/311/1}
 Group   2 Type Cl  : 13s10p1d contracted to 6s5p1d pattern {631111/52111/1}
 Group   3 Type H   : 5s contracted to 3s pattern {311}
 Group   4 Type N   : 11s5p1d contracted to 4s3p1d pattern {6311/311/1}

Atom   0C    basis set group =>   1
Atom   1C    basis set group =>   1
Atom   2Cl   basis set group =>   2
Atom   3Cl   basis set group =>   2
Atom   4H    basis set group =>   3
Atom   5H    basis set group =>   3
Atom   6H    basis set group =>   3
Atom   7C    basis set group =>   1
Atom   8H    basis set group =>   3
Atom   9H    basis set group =>   3
Atom  10H    basis set group =>   3
Atom  11N    basis set group =>   4
Atom  12H    basis set group =>   3
Atom  13H    basis set group =>   3
------------------------------------------------------------------------------
                           ORCA GTO INTEGRAL CALCULATION
------------------------------------------------------------------------------

                         BASIS SET STATISTICS AND STARTUP INFO

 # of primitive gaussian shells          ...  156
 # of primitive gaussian functions       ...  260
 # of contracted shells                  ...   80
 # of contracted basis functions         ...  148
 Highest angular momentum                ...    2
 Maximum contraction depth               ...    6
 Integral package used                   ... LIBINT
 Integral threshhold            Thresh   ...  2.500e-11
 Primitive cut-off              TCut     ...  2.500e-12


------------------------------ INTEGRAL EVALUATION ----------------------------


 * One electron integrals 
 Pre-screening matrix                    ... done
 Shell pair data                         ... done (   0.002 sec)

-------------------------------------------------------------------------------
                                 ORCA SCF
-------------------------------------------------------------------------------

------------
SCF SETTINGS
------------
Hamiltonian:
 Ab initio Hamiltonian  Method          .... Hartree-Fock(GTOs)


General Settings:
 Integral files         IntName         .... run
 Hartree-Fock type      HFTyp           .... RHF
 Total Charge           Charge          ....   -1
 Multiplicity           Mult            ....    1
 Number of Electrons    NEL             ....   68
 Basis Dimension        Dim             ....  148
 Nuclear Repulsion      ENuc            ....    331.3076274418 Eh

Convergence Acceleration:
 DIIS                   CNVDIIS         .... on
   Start iteration      DIISMaxIt       ....    12
   Startup error        DIISStart       ....  0.200000
   # of expansion vecs  DIISMaxEq       ....     5
   Bias factor          DIISBfac        ....   1.050
   Max. coefficient     DIISMaxC        ....  10.000
 Newton-Raphson         CNVNR           .... off
 SOSCF                  CNVSOSCF        .... on
   Start iteration      SOSCFMaxIt      ....   150
   Startup grad/error   SOSCFStart      ....  0.003300
 Level Shifting         CNVShift        .... on
   Level shift para.    LevelShift      ....    0.2500
   Turn off err/grad.   ShiftErr        ....    0.0010
 Zerner damping         CNVZerner       .... off
 Static damping         CNVDamp         .... on
   Fraction old density DampFac         ....    0.7000
   Max. Damping (<1)    DampMax         ....    0.9800
   Min. Damping (>=0)   DampMin         ....    0.0000
   Turn off err/grad.   DampErr         ....    0.1000
 Fernandez-Rico         CNVRico         .... off

SCF Procedure:
 Maximum # iterations   MaxIter         ....   125
 SCF integral mode      SCFMode         .... Direct
   Integral package                     .... LIBINT
 Reset frequeny         DirectResetFreq ....    20
 Integral Threshold     Thresh          ....  2.500e-11 Eh
 Primitive CutOff       TCut            ....  2.500e-12 Eh

Convergence Tolerance:
 Convergence Check Mode ConvCheckMode   .... Total+1el-Energy
 Convergence forced     ConvForced      .... 1
 Energy Change          TolE            ....  1.000e-08 Eh
 1-El. energy change                    ....  1.000e-05 Eh
 Orbital Gradient       TolG            ....  1.000e-05
 Orbital Rotation angle TolX            ....  1.000e-05
 DIIS Error             TolErr          ....  5.000e-07


Diagonalization of the overlap matrix:
Smallest eigenvalue                        ... 2.087e-03
Time for diagonalization                   ...    0.004 sec
Threshold for overlap eigenvalues          ... 1.000e-08
Number of eigenvalues below threshold      ... 0
Time for construction of square roots      ...    0.001 sec
Total time needed                          ...    0.006 sec

-------------------
DFT GRID GENERATION
-------------------

General Integration Accuracy     IntAcc      ...  4.340
Radial Grid Type                 RadialGrid  ... Gauss-Chebyshev
Angular Grid (max. acc.)         AngularGrid ... Lebedev-110
Angular grid pruning method      GridPruning ... 3 (G Style)
Weight generation scheme         WeightScheme... Becke
Basis function cutoff            BFCut       ...    1.0000e-11
Integration weight cutoff        WCut        ...    1.0000e-14
Grids for H and He will be reduced by one unit

# of grid points (after initial pruning)     ...  16710 (   0.0 sec)
# of grid points (after weights+screening)   ...  15673 (   0.0 sec)
nearest neighbour list constructed           ...    0.0 sec
Grid point re-assignment to atoms done       ...    0.0 sec
Grid point division into batches done        ...    0.0 sec
Reduced shell lists constructed in    0.3 sec

Total number of grid points                  ...    15673
Total number of batches                      ...      252
Average number of points per batch           ...       62
Average number of grid points per atom       ...     1120
Average number of shells per batch           ...    51.77 (64.72%)
Average number of basis functions per batch  ...    97.23 (65.70%)
Average number of large shells per batch     ...    40.38 (77.99%)
Average number of large basis fcns per batch ...    75.37 (77.52%)
Maximum spatial batch extension              ...  21.15, 22.20, 19.75 au
Average spatial batch extension              ...   3.94,  4.02,  4.03 au

Time for grid setup =    0.346 sec

------------------------------
INITIAL GUESS: MODEL POTENTIAL
------------------------------
Loading Hartree-Fock densities                     ... done
Calculating cut-offs                               ... done
Setting up the integral package                    ... done
Initializing the effective Hamiltonian             ... done
Starting the Coulomb interaction                   ... done (   0.2 sec)
Reading the grid                                   ... done
Mapping shells                                     ... done
Starting the XC term evaluation                    ... done (   0.3 sec)
Transforming the Hamiltonian                       ... done (   0.0 sec)
Diagonalizing the Hamiltonian                      ... done (   0.0 sec)
Back transforming the eigenvectors                 ... done (   0.0 sec)
Now organizing SCF variables                       ... done
                      ------------------
                      INITIAL GUESS DONE (   0.9 sec)
                      ------------------
--------------
SCF ITERATIONS
--------------
ITER       Energy         Delta-E        Max-DP      RMS-DP      [F,P]     Damp
               ***  Starting incremental Fock matrix formation  ***
  0  -1091.4280111110   0.000000000000 0.05934285  0.00176509  0.6460554 0.7000
  1  -1091.5447477371  -0.116736626062 0.04431025  0.00138733  0.4552804 0.7000
  2  -1091.6164128882  -0.071665151127 0.02781894  0.00089416  0.3210312 0.7000
  3  -1091.6621199306  -0.045707042410 0.01678154  0.00055933  0.2265016 0.7000
                               ***Turning on DIIS***
  4  -1091.6929588136  -0.030838883034 0.01005683  0.00036298  0.1596340 0.7000
  5  -1092.1062957901  -0.413336976450 0.00665602  0.00025946  0.1124004 0.7000
  6  -1092.0395978036   0.066697986436 0.01991951  0.00069678  0.0787475 0.0000
  7  -1091.7750490421   0.264548761523 0.00567807  0.00012158  0.0042691 0.0000
                      *** Initiating the SOSCF procedure ***
                           *** Shutting down DIIS ***
                      *** Re-Reading the Fockian *** 
                      *** Removing any level shift *** 
ITER      Energy       Delta-E        Grad      Rot      Max-DP    RMS-DP
  8  -1091.77246634   0.0025827061  0.002738  0.002738  0.004718  0.000098
               *** Restarting incremental Fock matrix formation ***
  9  -1091.76550131   0.0069650237  0.001210  0.002474  0.002607  0.000056
 10  -1091.76551844  -0.0000171280  0.000439  0.002389  0.003428  0.000072
 11  -1091.76552550  -0.0000070599  0.000069  0.000125  0.000293  0.000009
 12  -1091.76552583  -0.0000003336  0.000043  0.000093  0.000068  0.000003
 13  -1091.76552586  -0.0000000302  0.000014  0.000068  0.000052  0.000002
 14  -1091.76552587  -0.0000000061  0.000004  0.000008  0.000018  0.000000
                  ***Gradient check signals convergence***
              ***Rediagonalizing the Fockian in SOSCF/NRSCF***

               *****************************************************
               *                     SUCCESS                       *
               *           SCF CONVERGED AFTER  15 CYCLES          *
               *****************************************************


----------------
TOTAL SCF ENERGY
----------------

Total Energy       :        -1091.76552587 Eh          -29708.45031 eV

Components:
Nuclear Repulsion  :          331.30762744 Eh            9015.33887 eV
Electronic Energy  :        -1423.07315331 Eh          -38723.78918 eV
One Electron Energy:        -2174.79555038 Eh          -59179.19554 eV
Two Electron Energy:          751.72239707 Eh           20455.40636 eV

Virial components:
Potential Energy   :        -2183.58936967 Eh          -59418.48753 eV
Kinetic Energy     :         1091.82384380 Eh           29710.03722 eV
Virial Ratio       :            1.99994659


---------------
SCF CONVERGENCE
---------------

  Last Energy change         ...   -4.7180e-10  Tolerance :   1.0000e-08
  Last MAX-Density change    ...    2.3501e-06  Tolerance :   1.0000e-07
  Last RMS-Density change    ...    9.9693e-08  Tolerance :   5.0000e-09
  Last Orbital Gradient      ...    8.5373e-07  Tolerance :   1.0000e-05
  Last Orbital Rotation      ...    1.6570e-06  Tolerance :   1.0000e-05

             **** THE GBW FILE WAS UPDATED (run.gbw) ****
             **** DENSITY FILE WAS UPDATED (run.scfp.tmp) ****
             **** ENERGY FILE WAS UPDATED (run.en.tmp) ****
----------------
ORBITAL ENERGIES
----------------

  NO   OCC          E(Eh)            E(eV) 
   0   2.0000    -104.635174     -2847.2678 
   1   2.0000    -104.566162     -2845.3899 
   2   2.0000     -15.414404      -419.4473 
   3   2.0000     -11.178885      -304.1929 
   4   2.0000     -11.123922      -302.6973 
   5   2.0000     -11.122890      -302.6692 
   6   2.0000     -10.361839      -281.9600 
   7   2.0000     -10.292146      -280.0635 
   8   2.0000      -7.829483      -213.0511 
   9   2.0000      -7.827865      -213.0070 
  10   2.0000      -7.827860      -213.0069 
  11   2.0000      -7.759188      -211.1382 
  12   2.0000      -7.758748      -211.1263 
  13   2.0000      -7.758700      -211.1250 
  14   2.0000      -1.071533       -29.1579 
  15   2.0000      -0.954393       -25.9704 
  16   2.0000      -0.892249       -24.2793 
  17   2.0000      -0.810807       -22.0632 
  18   2.0000      -0.804424       -21.8895 
  19   2.0000      -0.664137       -18.0721 
  20   2.0000      -0.546039       -14.8585 
  21   2.0000      -0.529719       -14.4144 
  22   2.0000      -0.497921       -13.5491 
  23   2.0000      -0.473716       -12.8905 
  24   2.0000      -0.435706       -11.8562 
  25   2.0000      -0.413154       -11.2425 
  26   2.0000      -0.404833       -11.0161 
  27   2.0000      -0.287071        -7.8116 
  28   2.0000      -0.281058        -7.6480 
  29   2.0000      -0.280159        -7.6235 
  30   2.0000      -0.257478        -7.0063 
  31   2.0000      -0.217282        -5.9125 
  32   2.0000      -0.215905        -5.8751 
  33   2.0000      -0.180521        -4.9122 
  34   0.0000       0.231908         6.3105 
  35   0.0000       0.279661         7.6100 
  36   0.0000       0.293126         7.9764 
  37   0.0000       0.313256         8.5241 
  38   0.0000       0.344358         9.3705 
  39   0.0000       0.346295         9.4232 
  40   0.0000       0.360374         9.8063 
  41   0.0000       0.374310        10.1855 
  42   0.0000       0.413998        11.2654 
  43   0.0000       0.472213        12.8496 
  44   0.0000       0.492569        13.4035 
  45   0.0000       0.527055        14.3419 
  46   0.0000       0.552932        15.0460 
  47   0.0000       0.581357        15.8195 
  48   0.0000       0.589208        16.0332 
  49   0.0000       0.596836        16.2407 
  50   0.0000       0.617738        16.8095 
  51   0.0000       0.636408        17.3175 
  52   0.0000       0.647449        17.6180 
  53   0.0000       0.659687        17.9510 
  54   0.0000       0.684396        18.6234 
  55   0.0000       0.693756        18.8781 
  56   0.0000       0.732220        19.9247 
  57   0.0000       0.737137        20.0585 
  58   0.0000       0.774848        21.0847 
  59   0.0000       0.782542        21.2941 
  60   0.0000       0.852071        23.1860 
  61   0.0000       0.871298        23.7092 
  62   0.0000       0.897791        24.4301 
  63   0.0000       0.908904        24.7325 
  64   0.0000       0.929153        25.2835 
  65   0.0000       0.932927        25.3862 
  66   0.0000       0.945825        25.7372 
  67   0.0000       0.970415        26.4063 
  68   0.0000       1.025165        27.8962 
  69   0.0000       1.044808        28.4307 
  70   0.0000       1.091031        29.6885 
  71   0.0000       1.131309        30.7845 
  72   0.0000       1.146208        31.1899 
  73   0.0000       1.184318        32.2269 
  74   0.0000       1.223759        33.3002 
  75   0.0000       1.289335        35.0846 
  76   0.0000       1.304111        35.4867 
  77   0.0000       1.335607        36.3437 
  78   0.0000       1.341739        36.5106 
  79   0.0000       1.342390        36.5283 
  80   0.0000       1.348495        36.6944 
  81   0.0000       1.410846        38.3911 
  82   0.0000       1.415275        38.5116 
  83   0.0000       1.432324        38.9755 
  84   0.0000       1.440793        39.2060 
  85   0.0000       1.469124        39.9769 
  86   0.0000       1.559837        42.4453 
  87   0.0000       1.587746        43.2048 
  88   0.0000       1.630995        44.3816 
  89   0.0000       1.670699        45.4620 
  90   0.0000       1.746652        47.5288 
  91   0.0000       1.791439        48.7475 
  92   0.0000       1.861088        50.6428 
  93   0.0000       1.890316        51.4381 
  94   0.0000       1.903099        51.7860 
  95   0.0000       1.987883        54.0930 
  96   0.0000       2.056431        55.9583 
  97   0.0000       2.123648        57.7874 
  98   0.0000       2.159884        58.7734 
  99   0.0000       2.319817        63.1254 
 100   0.0000       2.332960        63.4831 
 101   0.0000       2.393519        65.1310 
 102   0.0000       2.406996        65.4977 
 103   0.0000       2.463059        67.0232 
 104   0.0000       2.566950        69.8502 
 105   0.0000       2.657164        72.3051 
 106   0.0000       2.669500        72.6408 
 107   0.0000       2.682643        72.9984 
 108   0.0000       2.698281        73.4240 
 109   0.0000       2.734639        74.4133 
 110   0.0000       2.752601        74.9021 
 111   0.0000       2.791587        75.9630 
 112   0.0000       2.806254        76.3621 
 113   0.0000       2.849305        77.5335 
 114   0.0000       2.860747        77.8449 
 115   0.0000       2.885228        78.5110 
 116   0.0000       2.929223        79.7082 
 117   0.0000       3.022895        82.2572 
 118   0.0000       3.062233        83.3276 
 119   0.0000       3.259758        88.7025 
 120   0.0000       3.267905        88.9242 
 121   0.0000       3.329831        90.6093 
 122   0.0000       3.434107        93.4468 
 123   0.0000       3.465855        94.3107 
 124   0.0000       3.546676        96.5100 
 125   0.0000       3.656826        99.5073 
 126   0.0000       3.700872       100.7058 
 127   0.0000       3.751658       102.0878 
 128   0.0000       3.852553       104.8333 
 129   0.0000       4.146814       112.8406 
 130   0.0000       4.462155       121.4214 
 131   0.0000       4.529632       123.2576 
 132   0.0000       4.682832       127.4263 
 133   0.0000       5.199273       141.4794 
 134   0.0000      10.407050       283.1902 
 135   0.0000      10.532512       286.6042 
 136   0.0000      24.637883       670.4309 
 137   0.0000      24.936041       678.5442 
 138   0.0000      25.312620       688.7914 
 139   0.0000      26.449203       719.7194 
 140   0.0000      26.496809       721.0148 
 141   0.0000      26.536903       722.1058 
 142   0.0000      26.609556       724.0828 
 143   0.0000      26.783295       728.8105 
 144   0.0000      26.853029       730.7081 
 145   0.0000      36.974711      1006.1330 
 146   0.0000     219.221078      5965.3088 
 147   0.0000     219.379114      5969.6092 

                    ********************************
                    * MULLIKEN POPULATION ANALYSIS *
                    ********************************

-----------------------
MULLIKEN ATOMIC CHARGES
-----------------------
   0 C :   -0.046645
   1 C :   -0.234076
   2 Cl:   -0.831298
   3 Cl:   -0.647681
   4 H :    0.333361
   5 H :    0.260502
   6 H :    0.222685
   7 C :   -0.615793
   8 H :    0.254880
   9 H :    0.216440
  10 H :    0.225609
  11 N :   -0.845205
  12 H :    0.335277
  13 H :    0.371945
Sum of atomic charges:   -1.0000000

--------------------------------
MULLIKEN REDUCED ORBITAL CHARGES
--------------------------------
  0 C s       :     3.316544  s :     3.316544
      pz      :     0.942019  p :     2.646283
      px      :     0.662342
      py      :     1.041922
      dz2     :     0.018903  d :     0.083818
      dxz     :     0.018249
      dyz     :     0.026004
      dx2y2   :     0.014775
      dxy     :     0.005887
  1 C s       :     3.220538  s :     3.220538
      pz      :     0.845328  p :     2.918162
      px      :     1.103674
      py      :     0.969159
      dz2     :     0.026803  d :     0.095376
      dxz     :     0.011275
      dyz     :     0.030774
      dx2y2   :     0.018460
      dxy     :     0.008064
  2 Cls       :     5.987117  s :     5.987117
      pz      :     3.975617  p :    11.842998
      px      :     3.878482
      py      :     3.988898
      dz2     :     0.000132  d :     0.001184
      dxz     :     0.000357
      dyz     :     0.000040
      dx2y2   :     0.000486
      dxy     :     0.000170
  3 Cls       :     5.981195  s :     5.981195
      pz      :     3.976054  p :    11.658204
      px      :     3.705881
      py      :     3.976269
      dz2     :     0.001403  d :     0.008282
      dxz     :     0.001313
      dyz     :     0.000090
      dx2y2   :     0.004191
      dxy     :     0.001284
  4 H s       :     0.666639  s :     0.666639
  5 H s       :     0.739498  s :     0.739498
  6 H s       :     0.777315  s :     0.777315
  7 C s       :     3.343683  s :     3.343683
      pz      :     1.116580  p :     3.203326
      px      :     1.089069
      py      :     0.997677
      dz2     :     0.016071  d :     0.068784
      dxz     :     0.008648
      dyz     :     0.016128
      dx2y2   :     0.022100
      dxy     :     0.005837
  8 H s       :     0.745120  s :     0.745120
  9 H s       :     0.783560  s :     0.783560
 10 H s       :     0.774391  s :     0.774391
 11 N s       :     3.686882  s :     3.686882
      pz      :     1.704445  p :     4.121855
      px      :     1.249460
      py      :     1.167949
      dz2     :     0.004046  d :     0.036468
      dxz     :     0.008089
      dyz     :     0.007261
      dx2y2   :     0.002657
      dxy     :     0.014415
 12 H s       :     0.664723  s :     0.664723
 13 H s       :     0.628055  s :     0.628055


                     *******************************
                     * LOEWDIN POPULATION ANALYSIS *
                     *******************************

----------------------
LOEWDIN ATOMIC CHARGES
----------------------
   0 C :    0.054547
   1 C :   -0.242027
   2 Cl:   -0.769402
   3 Cl:   -0.545063
   4 H :    0.186937
   5 H :    0.123475
   6 H :    0.099181
   7 C :   -0.275134
   8 H :    0.122478
   9 H :    0.109248
  10 H :    0.115643
  11 N :   -0.373550
  12 H :    0.191122
  13 H :    0.202545

-------------------------------
LOEWDIN REDUCED ORBITAL CHARGES
-------------------------------
  0 C s       :     2.890526  s :     2.890526
      pz      :     1.114278  p :     2.898363
      px      :     0.687486
      py      :     1.096599
      dz2     :     0.038995  d :     0.156564
      dxz     :     0.034199
      dyz     :     0.049323
      dx2y2   :     0.022939
      dxy     :     0.011108
  1 C s       :     2.844808  s :     2.844808
      pz      :     1.072566  p :     3.205780
      px      :     1.111730
      py      :     1.021484
      dz2     :     0.059104  d :     0.191439
      dxz     :     0.019220
      dyz     :     0.061077
      dx2y2   :     0.034454
      dxy     :     0.017584
  2 Cls       :     5.948103  s :     5.948103
      pz      :     3.967887  p :    11.819951
      px      :     3.868814
      py      :     3.983249
      dz2     :     0.000125  d :     0.001348
      dxz     :     0.000465
      dyz     :     0.000048
      dx2y2   :     0.000539
      dxy     :     0.000172
  3 Cls       :     5.863542  s :     5.863542
      pz      :     3.977444  p :    11.672332
      px      :     3.717959
      py      :     3.976928
      dz2     :     0.001553  d :     0.009188
      dxz     :     0.001441
      dyz     :     0.000096
      dx2y2   :     0.004672
      dxy     :     0.001427
  4 H s       :     0.813063  s :     0.813063
  5 H s       :     0.876525  s :     0.876525
  6 H s       :     0.900819  s :     0.900819
  7 C s       :     2.882594  s :     2.882594
      pz      :     1.106788  p :     3.285203
      px      :     1.099014
      py      :     1.079400
      dz2     :     0.023821  d :     0.107337
      dxz     :     0.011843
      dyz     :     0.027256
      dx2y2   :     0.034116
      dxy     :     0.010302
  8 H s       :     0.877522  s :     0.877522
  9 H s       :     0.890752  s :     0.890752
 10 H s       :     0.884357  s :     0.884357
 11 N s       :     3.192236  s :     3.192236
      pz      :     1.651570  p :     4.129463
      px      :     1.260499
      py      :     1.217394
      dz2     :     0.004838  d :     0.051851
      dxz     :     0.009680
      dyz     :     0.011216
      dx2y2   :     0.005792
      dxy     :     0.020326
 12 H s       :     0.808878  s :     0.808878
 13 H s       :     0.797455  s :     0.797455


                      *****************************
                      * MAYER POPULATION ANALYSIS *
                      *****************************

  NA   - Mulliken gross atomic population
  ZA   - Total nuclear charge
  QA   - Mulliken gross atomic charge
  VA   - Mayer's total valence
  BVA  - Mayer's bonded valence
  FA   - Mayer's free valence

  ATOM       NA         ZA         QA         VA         BVA        FA
  0 C      6.0466     6.0000    -0.0466     3.5980     3.5980    -0.0000
  1 C      6.2341     6.0000    -0.2341     3.4999     3.4999    -0.0000
  2 Cl    17.8313    17.0000    -0.8313     0.2384     0.2384    -0.0000
  3 Cl    17.6477    17.0000    -0.6477     0.4924     0.4924     0.0000
  4 H      0.6666     1.0000     0.3334     0.8350     0.8350    -0.0000
  5 H      0.7395     1.0000     0.2605     0.8968     0.8968     0.0000
  6 H      0.7773     1.0000     0.2227     0.9244     0.9244    -0.0000
  7 C      6.6158     6.0000    -0.6158     3.6735     3.6735    -0.0000
  8 H      0.7451     1.0000     0.2549     0.9006     0.9006    -0.0000
  9 H      0.7836     1.0000     0.2164     0.9164     0.9164     0.0000
 10 H      0.7744     1.0000     0.2256     0.9040     0.9040    -0.0000
 11 N      7.8452     7.0000    -0.8452     2.5896     2.5896    -0.0000
 12 H      0.6647     1.0000     0.3353     0.8528     0.8528    -0.0000
 13 H      0.6281     1.0000     0.3719     0.8350     0.8350    -0.0000

  Mayer bond orders larger than 0.1
B(  0-C ,  1-C ) :   1.4213 B(  0-C ,  2-Cl) :   0.2482 B(  0-C ,  5-H ) :   0.9232 
B(  0-C ,  7-C ) :   0.9541 B(  1-C ,  4-H ) :   0.3487 B(  1-C ,  6-H ) :   0.9461 
B(  1-C , 11-N ) :   0.9065 B(  3-Cl,  4-H ) :   0.4382 B(  7-C ,  8-H ) :   0.9284 
B(  7-C ,  9-H ) :   0.9467 B(  7-C , 10-H ) :   0.9190 B( 11-N , 12-H ) :   0.8526 
B( 11-N , 13-H ) :   0.8332 

-------
TIMINGS
-------

Total SCF time: 0 days 0 hours 0 min 53 sec 

Total time                  ....      53.316 sec
Sum of individual times     ....      53.279 sec  ( 99.9%)

Fock matrix formation       ....      52.235 sec  ( 98.0%)
Diagonalization             ....       0.053 sec  (  0.1%)
Density matrix formation    ....       0.005 sec  (  0.0%)
Population analysis         ....       0.007 sec  (  0.0%)
Initial guess               ....       0.575 sec  (  1.1%)
Orbital Transformation      ....       0.000 sec  (  0.0%)
Orbital Orthonormalization  ....       0.000 sec  (  0.0%)
DIIS solution               ....       0.013 sec  (  0.0%)
SOSCF solution              ....       0.045 sec  (  0.1%)

------------------------------------------------------------------------------
                                ORCA  MP2 
------------------------------------------------------------------------------

MP2 will be done in the AO integral direct mode
The Q1-step will be done using symmetric double matrices
Dimension of the basis                    ...  148
Memory devoted for MP2                    ... 10000 MB   
Memory needed for all in one shot         ...  424 MB
Number of MOs that can be treated together...  802      
MP2 density construction                  ... relaxed
The MP2 gradient is requested => amplitudes will be stored on disk
Total number of MOs              ...   34
Number of MOs treated per batch  ...   34 
Number of batches necessary      ...    1 
OPERATORS   0/  0 PASS   0
-----------------------------------------------
 MP2 CORRELATION ENERGY   :     -1.052484022 Eh
-----------------------------------------------


---------------------
MP2 DENSITY FORMATION
---------------------

Completing the external part of the density      ... done
Storing the unrelaxed density                    ... done

Calculating G(D)                                 ... done
Completing the Lagrangian                        ... done
Solving the Z-vector equations                   ... 

------------------------------------------------------------------------------
                           ORCA CP-SCF CALCULATION
------------------------------------------------------------------------------

Input orbitals are from        ... run.gbw
Input Perturbation             ... run.pin.tmp
Wavefunction output            ... run.pout.tmp
Perturbation mode              ... Real perturbation
Solver                         ... POPLE
Max. number of iterations      ... 128
Convergence tolerance          ... 1.000e-08
Integral handling              ... Direct
Number of perturbations        ... 1
Number of operators            ... 1
Orbital ranges used for CP-SCF:
 Operator 0:  Orbitals   0... 33  to  34...147
Variables per vector in CP-SCF ... 3876
Number of vectors sought       ... 1
     CP-SCF ITERATION   0: 
     CP-SCF ITERATION   1:      0.002665393204
     CP-SCF ITERATION   2:      0.000291342740
     CP-SCF ITERATION   3:      0.000050050919
     CP-SCF ITERATION   4:      0.000004782679
     CP-SCF ITERATION   5:      0.000000621919
     CP-SCF ITERATION   6:      0.000000041943
     CP-SCF ITERATION   7:      0.000000003123
                                                 ... done
Finalizing the relaxed density                   ... done
Transforming P to the AO basis                   ... done
Storing the relaxed density                      ... done

------------------------------------
ENERGY WEIGHTED DENSITY FINALIZATION
------------------------------------

Gathering the parts of the W-matrix              ...                                                      done
Forming the Z-density                            ... done
Transforming Z to the AO basis                   ... done
Calculating G(Z)                                 ... done
Finalizing the W-matrix                          ...                                                      done
Transforming W to the AO basis and storing       ... done

                *********************************************
                * UNRELAXED MP2 DENSITY POPULATION ANALYSIS *
                *********************************************

------------------------------------------------------------------------------
                           ORCA POPULATION ANALYSIS
------------------------------------------------------------------------------
Input electron density              ... run.pmp2ur
BaseName (.gbw .S,...)              ... run

                    ********************************
                    * MULLIKEN POPULATION ANALYSIS *
                    ********************************

-----------------------
MULLIKEN ATOMIC CHARGES
-----------------------
   0 C :   -0.067872
   1 C :   -0.233347
   2 Cl:   -0.822392
   3 Cl:   -0.639724
   4 H :    0.326941
   5 H :    0.262409
   6 H :    0.225095
   7 C :   -0.621633
   8 H :    0.256734
   9 H :    0.218939
  10 H :    0.227525
  11 N :   -0.837750
  12 H :    0.334600
  13 H :    0.370473
Sum of atomic charges:   -1.0000000

--------------------------------
MULLIKEN REDUCED ORBITAL CHARGES
--------------------------------
  0 C s       :     3.313035  s :     3.313035
      pz      :     0.939130  p :     2.653777
      px      :     0.676344
      py      :     1.038303
      dz2     :     0.022252  d :     0.101060
      dxz     :     0.021353
      dyz     :     0.030129
      dx2y2   :     0.017865
      dxy     :     0.009460
  1 C s       :     3.217459  s :     3.217459
      pz      :     0.843334  p :     2.899428
      px      :     1.089157
      py      :     0.966936
      dz2     :     0.030327  d :     0.116460
      dxz     :     0.016206
      dyz     :     0.034681
      dx2y2   :     0.022836
      dxy     :     0.012409
  2 Cls       :     5.980009  s :     5.980009
      pz      :     3.959193  p :    11.791614
      px      :     3.859403
      py      :     3.973019
      dz2     :     0.009998  d :     0.050769
      dxz     :     0.010369
      dyz     :     0.009812
      dx2y2   :     0.010443
      dxy     :     0.010147
  3 Cls       :     5.973523  s :     5.973523
      pz      :     3.959716  p :    11.608277
      px      :     3.688551
      py      :     3.960010
      dz2     :     0.011310  d :     0.057924
      dxz     :     0.011264
      dyz     :     0.009932
      dx2y2   :     0.014190
      dxy     :     0.011228
  4 H s       :     0.673059  s :     0.673059
  5 H s       :     0.737591  s :     0.737591
  6 H s       :     0.774905  s :     0.774905
  7 C s       :     3.340184  s :     3.340184
      pz      :     1.112550  p :     3.192377
      px      :     1.085473
      py      :     0.994354
      dz2     :     0.020172  d :     0.089073
      dxz     :     0.012962
      dyz     :     0.019851
      dx2y2   :     0.025824
      dxy     :     0.010262
  8 H s       :     0.743266  s :     0.743266
  9 H s       :     0.781061  s :     0.781061
 10 H s       :     0.772475  s :     0.772475
 11 N s       :     3.682336  s :     3.682336
      pz      :     1.692462  p :     4.099134
      px      :     1.244096
      py      :     1.162576
      dz2     :     0.008353  d :     0.056280
      dxz     :     0.012139
      dyz     :     0.011209
      dx2y2   :     0.006610
      dxy     :     0.017969
 12 H s       :     0.665400  s :     0.665400
 13 H s       :     0.629527  s :     0.629527


                     *******************************
                     * LOEWDIN POPULATION ANALYSIS *
                     *******************************

----------------------
LOEWDIN ATOMIC CHARGES
----------------------
   0 C :    0.033807
   1 C :   -0.244947
   2 Cl:   -0.760653
   3 Cl:   -0.536975
   4 H :    0.182754
   5 H :    0.127040
   6 H :    0.103313
   7 C :   -0.286395
   8 H :    0.125928
   9 H :    0.113083
  10 H :    0.119048
  11 N :   -0.371778
  12 H :    0.192439
  13 H :    0.203336

-------------------------------
LOEWDIN REDUCED ORBITAL CHARGES
-------------------------------
  0 C s       :     2.889331  s :     2.889331
      pz      :     1.107641  p :     2.899732
      px      :     0.700677
      py      :     1.091415
      dz2     :     0.044133  d :     0.177130
      dxz     :     0.037256
      dyz     :     0.053926
      dx2y2   :     0.026761
      dxy     :     0.015055
  1 C s       :     2.845496  s :     2.845496
      pz      :     1.066308  p :     3.183425
      px      :     1.098703
      py      :     1.018414
      dz2     :     0.064199  d :     0.216026
      dxz     :     0.024733
      dyz     :     0.065174
      dx2y2   :     0.039417
      dxy     :     0.022503
  2 Cls       :     5.940823  s :     5.940823
      pz      :     3.951300  p :    11.768158
      px      :     3.849582
      py      :     3.967276
      dz2     :     0.010088  d :     0.051672
      dxz     :     0.010675
      dyz     :     0.009870
      dx2y2   :     0.010778
      dxy     :     0.010261
  3 Cls       :     5.856177  s :     5.856177
      pz      :     3.960996  p :    11.621260
      px      :     3.699689
      py      :     3.960575
      dz2     :     0.011566  d :     0.059538
      dxz     :     0.011528
      dyz     :     0.009956
      dx2y2   :     0.014962
      dxy     :     0.011527
  4 H s       :     0.817246  s :     0.817246
  5 H s       :     0.872960  s :     0.872960
  6 H s       :     0.896687  s :     0.896687
  7 C s       :     2.883352  s :     2.883352
      pz      :     1.102570  p :     3.272361
      px      :     1.095322
      py      :     1.074469
      dz2     :     0.028369  d :     0.130681
      dxz     :     0.016705
      dyz     :     0.031856
      dx2y2   :     0.038568
      dxy     :     0.015183
  8 H s       :     0.874072  s :     0.874072
  9 H s       :     0.886917  s :     0.886917
 10 H s       :     0.880952  s :     0.880952
 11 N s       :     3.191165  s :     3.191165
      pz      :     1.640240  p :     4.106884
      px      :     1.255279
      py      :     1.211365
      dz2     :     0.009408  d :     0.073729
      dxz     :     0.014068
      dyz     :     0.015800
      dx2y2   :     0.010038
      dxy     :     0.024415
 12 H s       :     0.807561  s :     0.807561
 13 H s       :     0.796664  s :     0.796664


                      *****************************
                      * MAYER POPULATION ANALYSIS *
                      *****************************

  NA   - Mulliken gross atomic population
  ZA   - Total nuclear charge
  QA   - Mulliken gross atomic charge
  VA   - Mayer's total valence
  BVA  - Mayer's bonded valence
  FA   - Mayer's free valence

  ATOM       NA         ZA         QA         VA         BVA        FA
  0 C      6.0679     6.0000    -0.0679     3.7087     3.3773     0.3314
  1 C      6.2333     6.0000    -0.2333     3.6199     3.2805     0.3394
  2 Cl    17.8224    17.0000    -0.8224     0.6369     0.2222     0.4147
  3 Cl    17.6397    17.0000    -0.6397     0.8632     0.4585     0.4047
  4 H      0.6731     1.0000     0.3269     0.8390     0.7823     0.0568
  5 H      0.7376     1.0000     0.2624     0.8981     0.8604     0.0377
  6 H      0.7749     1.0000     0.2251     0.9252     0.8853     0.0400
  7 C      6.6216     6.0000    -0.6216     3.7893     3.5144     0.2748
  8 H      0.7433     1.0000     0.2567     0.9019     0.8649     0.0371
  9 H      0.7811     1.0000     0.2189     0.9177     0.8802     0.0375
 10 H      0.7725     1.0000     0.2275     0.9059     0.8659     0.0399
 11 N      7.8377     7.0000    -0.8377     2.7965     2.4604     0.3362
 12 H      0.6654     1.0000     0.3346     0.8554     0.8151     0.0403
 13 H      0.6295     1.0000     0.3705     0.8382     0.7987     0.0395

  Mayer bond orders larger than 0.1
B(  0-C ,  1-C ) :   1.3234 B(  0-C ,  2-Cl) :   0.2352 B(  0-C ,  5-H ) :   0.8875 
B(  0-C ,  7-C ) :   0.9014 B(  1-C ,  4-H ) :   0.3256 B(  1-C ,  6-H ) :   0.9088 
B(  1-C , 11-N ) :   0.8517 B(  3-Cl,  4-H ) :   0.4185 B(  7-C ,  8-H ) :   0.8936 
B(  7-C ,  9-H ) :   0.9109 B(  7-C , 10-H ) :   0.8829 B( 11-N , 12-H ) :   0.8164 
B( 11-N , 13-H ) :   0.7983 


                *******************************************
                * RELAXED MP2 DENSITY POPULATION ANALYSIS *
                *******************************************

------------------------------------------------------------------------------
                           ORCA POPULATION ANALYSIS
------------------------------------------------------------------------------
Input electron density              ... run.pmp2re
BaseName (.gbw .S,...)              ... run

                    ********************************
                    * MULLIKEN POPULATION ANALYSIS *
                    ********************************

-----------------------
MULLIKEN ATOMIC CHARGES
-----------------------
   0 C :   -0.119326
   1 C :   -0.221348
   2 Cl:   -0.775462
   3 Cl:   -0.579521
   4 H :    0.290154
   5 H :    0.241011
   6 H :    0.224190
   7 C :   -0.660843
   8 H :    0.257310
   9 H :    0.220786
  10 H :    0.225642
  11 N :   -0.792133
  12 H :    0.327380
  13 H :    0.362162
Sum of atomic charges:   -1.0000000

--------------------------------
MULLIKEN REDUCED ORBITAL CHARGES
--------------------------------
  0 C s       :     3.294853  s :     3.294853
      pz      :     0.918758  p :     2.734229
      px      :     0.803491
      py      :     1.011980
      dz2     :     0.020250  d :     0.090245
      dxz     :     0.018058
      dyz     :     0.027017
      dx2y2   :     0.015782
      dxy     :     0.009138
  1 C s       :     3.214539  s :     3.214539
      pz      :     0.886425  p :     2.898781
      px      :     1.029968
      py      :     0.982388
      dz2     :     0.026523  d :     0.108029
      dxz     :     0.016289
      dyz     :     0.033005
      dx2y2   :     0.020482
      dxy     :     0.011728
  2 Cls       :     5.979722  s :     5.979722
      pz      :     3.949491  p :    11.744884
      px      :     3.826834
      py      :     3.968559
      dz2     :     0.010001  d :     0.050856
      dxz     :     0.010407
      dyz     :     0.009818
      dx2y2   :     0.010474
      dxy     :     0.010156
  3 Cls       :     5.968326  s :     5.968326
      pz      :     3.955744  p :    11.552996
      px      :     3.642914
      py      :     3.954339
      dz2     :     0.011370  d :     0.058198
      dxz     :     0.011272
      dyz     :     0.009929
      dx2y2   :     0.014351
      dxy     :     0.011277
  4 H s       :     0.709846  s :     0.709846
  5 H s       :     0.758989  s :     0.758989
  6 H s       :     0.775810  s :     0.775810
  7 C s       :     3.328692  s :     3.328692
      pz      :     1.135262  p :     3.253808
      px      :     1.094629
      py      :     1.023917
      dz2     :     0.018032  d :     0.078343
      dxz     :     0.011584
      dyz     :     0.016648
      dx2y2   :     0.022425
      dxy     :     0.009655
  8 H s       :     0.742690  s :     0.742690
  9 H s       :     0.779214  s :     0.779214
 10 H s       :     0.774358  s :     0.774358
 11 N s       :     3.654802  s :     3.654802
      pz      :     1.682588  p :     4.085148
      px      :     1.242756
      py      :     1.159804
      dz2     :     0.008334  d :     0.052183
      dxz     :     0.011326
      dyz     :     0.010413
      dx2y2   :     0.006171
      dxy     :     0.015938
 12 H s       :     0.672620  s :     0.672620
 13 H s       :     0.637838  s :     0.637838


                     *******************************
                     * LOEWDIN POPULATION ANALYSIS *
                     *******************************

----------------------
LOEWDIN ATOMIC CHARGES
----------------------
   0 C :   -0.043572
   1 C :   -0.230306
   2 Cl:   -0.725051
   3 Cl:   -0.488687
   4 H :    0.171706
   5 H :    0.121024
   6 H :    0.109312
   7 C :   -0.319368
   8 H :    0.130810
   9 H :    0.117872
  10 H :    0.122297
  11 N :   -0.368107
  12 H :    0.195713
  13 H :    0.206357

-------------------------------
LOEWDIN REDUCED ORBITAL CHARGES
-------------------------------
  0 C s       :     2.884037  s :     2.884037
      pz      :     1.095475  p :     2.990608
      px      :     0.813338
      py      :     1.081795
      dz2     :     0.044031  d :     0.168927
      dxz     :     0.032807
      dyz     :     0.051940
      dx2y2   :     0.025037
      dxy     :     0.015113
  1 C s       :     2.852377  s :     2.852377
      pz      :     1.086770  p :     3.167920
      px      :     1.056918
      py      :     1.024232
      dz2     :     0.059675  d :     0.210008
      dxz     :     0.026896
      dyz     :     0.064077
      dx2y2   :     0.037453
      dxy     :     0.021907
  2 Cls       :     5.942369  s :     5.942369
      pz      :     3.944352  p :    11.730845
      px      :     3.821750
      py      :     3.964743
      dz2     :     0.010100  d :     0.051837
      dxz     :     0.010732
      dyz     :     0.009877
      dx2y2   :     0.010854
      dxy     :     0.010275
  3 Cls       :     5.856981  s :     5.856981
      pz      :     3.958278  p :    11.571863
      px      :     3.657070
      py      :     3.956515
      dz2     :     0.011627  d :     0.059843
      dxz     :     0.011545
      dyz     :     0.009954
      dx2y2   :     0.015128
      dxy     :     0.011589
  4 H s       :     0.828294  s :     0.828294
  5 H s       :     0.878976  s :     0.878976
  6 H s       :     0.890688  s :     0.890688
  7 C s       :     2.886369  s :     2.886369
      pz      :     1.116114  p :     3.312387
      px      :     1.104489
      py      :     1.091785
      dz2     :     0.026458  d :     0.120612
      dxz     :     0.015561
      dyz     :     0.028279
      dx2y2   :     0.035312
      dxy     :     0.015002
  8 H s       :     0.869190  s :     0.869190
  9 H s       :     0.882128  s :     0.882128
 10 H s       :     0.877703  s :     0.877703
 11 N s       :     3.190841  s :     3.190841
      pz      :     1.633716  p :     4.107328
      px      :     1.258847
      py      :     1.214765
      dz2     :     0.009445  d :     0.069937
      dxz     :     0.013311
      dyz     :     0.015121
      dx2y2   :     0.009553
      dxy     :     0.022508
 12 H s       :     0.804287  s :     0.804287
 13 H s       :     0.793643  s :     0.793643


                      *****************************
                      * MAYER POPULATION ANALYSIS *
                      *****************************

  NA   - Mulliken gross atomic population
  ZA   - Total nuclear charge
  QA   - Mulliken gross atomic charge
  VA   - Mayer's total valence
  BVA  - Mayer's bonded valence
  FA   - Mayer's free valence

  ATOM       NA         ZA         QA         VA         BVA        FA
  0 C      6.1193     6.0000    -0.1193     3.8255     3.5254     0.3001
  1 C      6.2213     6.0000    -0.2213     3.7339     3.4124     0.3215
  2 Cl    17.7755    17.0000    -0.7755     0.7149     0.3093     0.4057
  3 Cl    17.5795    17.0000    -0.5795     0.9458     0.5506     0.3952
  4 H      0.7098     1.0000     0.2902     0.8627     0.8078     0.0550
  5 H      0.7590     1.0000     0.2410     0.9116     0.8754     0.0362
  6 H      0.7758     1.0000     0.2242     0.9247     0.8856     0.0390
  7 C      6.6608     6.0000    -0.6608     3.8119     3.5410     0.2709
  8 H      0.7427     1.0000     0.2573     0.9030     0.8667     0.0363
  9 H      0.7792     1.0000     0.2208     0.9154     0.8786     0.0368
 10 H      0.7744     1.0000     0.2256     0.9054     0.8666     0.0388
 11 N      7.7921     7.0000    -0.7921     2.8690     2.5381     0.3309
 12 H      0.6726     1.0000     0.3274     0.8604     0.8207     0.0397
 13 H      0.6378     1.0000     0.3622     0.8494     0.8108     0.0386

  Mayer bond orders larger than 0.1
B(  0-C ,  1-C ) :   1.3859 B(  0-C ,  2-Cl) :   0.2527 B(  0-C ,  5-H ) :   0.8910 
B(  0-C ,  7-C ) :   0.9206 B(  1-C ,  4-H ) :   0.3016 B(  1-C ,  6-H ) :   0.8969 
B(  1-C , 11-N ) :   0.9051 B(  3-Cl,  4-H ) :   0.4609 B(  7-C ,  8-H ) :   0.8882 
B(  7-C ,  9-H ) :   0.9058 B(  7-C , 10-H ) :   0.8780 B( 11-N , 12-H ) :   0.8147 
B( 11-N , 13-H ) :   0.7971 


----------------------------------
MP2 DERIVATIVE INTEGRAL GENERATION
----------------------------------


Input Wavefunction Amplitudes       ... run.mp2tsaa.tmp.proc0
Input Correlated Electron Density   ... run.pmp2re
Input Energy Weighted Density       ... run.wmp2.tmp
Input SCF Electron Density          ... run.scfp.tmp

One-Electron Terms    ...
                        ... One-Electron Terms done
Prescreening matrices              ... done

Batch handling in the gradient evaluation:
Memory available                      ... 10000.0 MB
Memory per occupied orbital in Q2     ...    5.7 MB
Memory per occupied orbital in Q3     ...    0.0 MB
Total memory requirement per |i>      ...    5.7 MB
Max. Number of orbitals possible      ...   1751
Number of orbitals treated per batch  ...     34
Number of batches to be done          ...      1
Batch   0: i=    0 ...    33

---------------------------------------
MP2 TOTAL ENERGY:    -1092.818009893 Eh
---------------------------------------

The final MP2 gradient
  0:  -0.00015248  -0.00002332   0.00008692
  1:   0.00015718  -0.00000564  -0.00003514
  2:   0.00004727   0.00003173   0.00000614
  3:   0.00006644   0.00003569  -0.00003215
  4:  -0.00014213  -0.00003692  -0.00002228
  5:   0.00008337  -0.00001348  -0.00003415
  6:  -0.00001235   0.00001205   0.00001521
  7:  -0.00004207  -0.00003754   0.00004441
  8:  -0.00003756   0.00007597  -0.00001092
  9:   0.00004083   0.00000551  -0.00002306
 10:   0.00000146  -0.00004138   0.00000802
 11:  -0.00000487  -0.00000557  -0.00000161
 12:   0.00000107  -0.00000012   0.00000969
 13:  -0.00000617   0.00000302  -0.00001109

-----------------------------------
NORM OF THE MP2 GRADIENT:  0.000339
-----------------------------------

-------------------------   --------------------
FINAL SINGLE POINT ENERGY     -1092.818009892853
-------------------------   --------------------


                            ***************************************
                            *     ORCA property calculations      *
                            ***************************************

                                    ---------------------
                                    Active property flags
                                    ---------------------
   (+) Dipole Moment


------------------------------------------------------------------------------
                       ORCA ELECTRIC PROPERTIES CALCULATION
------------------------------------------------------------------------------

Dipole Moment Calculation                       ... on
Quadrupole Moment Calculation                   ... off
Polarizability Calculation                      ... off
GBWName                                         ... run.gbw
Electron density file                           ... run.scfp.tmp
The origin for moment calculation is the CENTER OF MASS  = (-0.701684,  0.212706  0.740989)

-------------
DIPOLE MOMENT
-------------
                                X             Y             Z
Electronic contribution:     -0.69895       2.66288       0.57675
Nuclear contribution   :     -0.55554      -3.05580      -0.63855
                        -----------------------------------------
Total Dipole Moment    :     -1.25449      -0.39292      -0.06180
                        -----------------------------------------
Magnitude (a.u.)       :      1.31604
Magnitude (Debye)      :      3.34510


                         *** MP2 UNRELAXED DENSITY ***

------------------------------------------------------------------------------
                       ORCA ELECTRIC PROPERTIES CALCULATION
------------------------------------------------------------------------------

Dipole Moment Calculation                       ... on
Quadrupole Moment Calculation                   ... off
Polarizability Calculation                      ... off
GBWName                                         ... run.gbw
Electron density file                           ... run.pmp2ur
The origin for moment calculation is the CENTER OF MASS  = (-0.701684,  0.212706  0.740989)

-------------
DIPOLE MOMENT
-------------
                                X             Y             Z
Electronic contribution:     -0.69641       2.67306       0.60172
Nuclear contribution   :     -0.55554      -3.05580      -0.63855
                        -----------------------------------------
Total Dipole Moment    :     -1.25195      -0.38274      -0.03683
                        -----------------------------------------
Magnitude (a.u.)       :      1.30966
Magnitude (Debye)      :      3.32890


                           *** MP2 RELAXED DENSITY ***

------------------------------------------------------------------------------
                       ORCA ELECTRIC PROPERTIES CALCULATION
------------------------------------------------------------------------------

Dipole Moment Calculation                       ... on
Quadrupole Moment Calculation                   ... off
Polarizability Calculation                      ... off
GBWName                                         ... run.gbw
Electron density file                           ... run.pmp2re
The origin for moment calculation is the CENTER OF MASS  = (-0.701684,  0.212706  0.740989)

-------------
DIPOLE MOMENT
-------------
                                X             Y             Z
Electronic contribution:     -0.76490       2.78039       0.80630
Nuclear contribution   :     -0.55554      -3.05580      -0.63855
                        -----------------------------------------
Total Dipole Moment    :     -1.32044      -0.27540       0.16775
                        -----------------------------------------
Magnitude (a.u.)       :      1.35924
Magnitude (Debye)      :      3.45492


----------------------------------------------------------------------------
                           ORCA NUMERICAL FREQUENCIES
----------------------------------------------------------------------------

Number of atoms                ... 14
Central differences            ... used
Number of displacements        ... 84
Numerical increment            ...  0.005 bohr
IR-spectrum generation         ... on
Raman-spectrum generation      ... off
Surface Crossing Hessian       ... off

                    <<<RESTART CALCULATION>>>
 Will try to read the Hessian file and continue where the previous
 run stopped. The .hess file must have the same name as before!

     ....    checking local Hessian files ...  
 Found Hessian file: run.proc0.hess 

     ....    will redo Atom  11 coordinate 1 ...
     ....    will redo Atom  11 coordinate 2 ...
     ....    will redo Atom  11 coordinate 3 ...
     ....    will redo Atom  12 coordinate 1 ...
     ....    will redo Atom  12 coordinate 2 ...
     ....    will redo Atom  12 coordinate 3 ...
     ....    will redo Atom  13 coordinate 1 ...
     ....    will redo Atom  13 coordinate 2 ...
     ....    will redo Atom  13 coordinate 3 ...
     ....    will redo Atom  14 coordinate 1 ...
     ....    will redo Atom  14 coordinate 2 ...
     ....    will redo Atom  14 coordinate 3 ...

The output will be reduced. Please look at the following files:
SCF program output             ... >run.lastscf
Integral program output        ... >run.lastint
Gradient program output        ... >run.lastgrad
Dipole moment program output   ... >run.lastmom


         <<<Energy and Gradient at the input geometry>>>
             <<<Displacing  11/coordinate 1 (+)>>>
             <<<Displacing  11/coordinate 1 (-)>>>
             <<<Displacing  11/coordinate 2 (+)>>>
             <<<Displacing  11/coordinate 2 (-)>>>
             <<<Displacing  11/coordinate 3 (+)>>>
             <<<Displacing  11/coordinate 3 (-)>>>
             <<<Displacing  12/coordinate 1 (+)>>>
             <<<Displacing  12/coordinate 1 (-)>>>
             <<<Displacing  12/coordinate 2 (+)>>>
             <<<Displacing  12/coordinate 2 (-)>>>
             <<<Displacing  12/coordinate 3 (+)>>>
             <<<Displacing  12/coordinate 3 (-)>>>
             <<<Displacing  13/coordinate 1 (+)>>>
             <<<Displacing  13/coordinate 1 (-)>>>
             <<<Displacing  13/coordinate 2 (+)>>>
             <<<Displacing  13/coordinate 2 (-)>>>
             <<<Displacing  13/coordinate 3 (+)>>>
             <<<Displacing  13/coordinate 3 (-)>>>
             <<<Displacing  14/coordinate 1 (+)>>>
             <<<Displacing  14/coordinate 1 (-)>>>
             <<<Displacing  14/coordinate 2 (+)>>>
             <<<Displacing  14/coordinate 2 (-)>>>
             <<<Displacing  14/coordinate 3 (+)>>>
             <<<Displacing  14/coordinate 3 (-)>>>

-----------------------
VIBRATIONAL FREQUENCIES
-----------------------

   0:         0.00 cm**-1
   1:         0.00 cm**-1
   2:         0.00 cm**-1
   3:         0.00 cm**-1
   4:         0.00 cm**-1
   5:         0.00 cm**-1
   6:      -756.84 cm**-1 ***imaginary mode***
   7:        54.13 cm**-1
   8:        65.66 cm**-1
   9:       100.58 cm**-1
  10:       145.69 cm**-1
  11:       176.44 cm**-1
  12:       191.93 cm**-1
  13:       215.03 cm**-1
  14:       306.23 cm**-1
  15:       405.72 cm**-1
  16:       427.91 cm**-1
  17:       533.95 cm**-1
  18:       810.62 cm**-1
  19:       919.70 cm**-1
  20:       962.24 cm**-1
  21:       975.73 cm**-1
  22:      1066.56 cm**-1
  23:      1101.69 cm**-1
  24:      1157.71 cm**-1
  25:      1179.22 cm**-1
  26:      1211.41 cm**-1
  27:      1297.01 cm**-1
  28:      1330.49 cm**-1
  29:      1363.39 cm**-1
  30:      1432.16 cm**-1
  31:      1500.93 cm**-1
  32:      1525.81 cm**-1
  33:      1653.97 cm**-1
  34:      1721.93 cm**-1
  35:      3056.87 cm**-1
  36:      3147.31 cm**-1
  37:      3156.36 cm**-1
  38:      3206.52 cm**-1
  39:      3242.71 cm**-1
  40:      3514.47 cm**-1
  41:      3617.79 cm**-1


------------
NORMAL MODES
------------

These modes are the cartesian displacements weighted by the diagonal matrix
M(i,i)=1/sqrt(m[i]) where m[i] is the mass of the displaced atom
Thus, these vectors are normalized but *not* orthogonal

                  0          1          2          3          4          5    
      0       0.000000   0.000000   0.000000   0.000000   0.000000   0.000000
      1       0.000000   0.000000   0.000000   0.000000   0.000000   0.000000
      2       0.000000   0.000000   0.000000   0.000000   0.000000   0.000000
      3       0.000000   0.000000   0.000000   0.000000   0.000000   0.000000
      4       0.000000   0.000000   0.000000   0.000000   0.000000   0.000000
      5       0.000000   0.000000   0.000000   0.000000   0.000000   0.000000
      6       0.000000   0.000000   0.000000   0.000000   0.000000   0.000000
      7       0.000000   0.000000   0.000000   0.000000   0.000000   0.000000
      8       0.000000   0.000000   0.000000   0.000000   0.000000   0.000000
      9       0.000000   0.000000   0.000000   0.000000   0.000000   0.000000
     10       0.000000   0.000000   0.000000   0.000000   0.000000   0.000000
     11       0.000000   0.000000   0.000000   0.000000   0.000000   0.000000
     12       0.000000   0.000000   0.000000   0.000000   0.000000   0.000000
     13       0.000000   0.000000   0.000000   0.000000   0.000000   0.000000
     14       0.000000   0.000000   0.000000   0.000000   0.000000   0.000000
     15       0.000000   0.000000   0.000000   0.000000   0.000000   0.000000
     16       0.000000   0.000000   0.000000   0.000000   0.000000   0.000000
     17       0.000000   0.000000   0.000000   0.000000   0.000000   0.000000
     18       0.000000   0.000000   0.000000   0.000000   0.000000   0.000000
     19       0.000000   0.000000   0.000000   0.000000   0.000000   0.000000
     20       0.000000   0.000000   0.000000   0.000000   0.000000   0.000000
     21       0.000000   0.000000   0.000000   0.000000   0.000000   0.000000
     22       0.000000   0.000000   0.000000   0.000000   0.000000   0.000000
     23       0.000000   0.000000   0.000000   0.000000   0.000000   0.000000
     24       0.000000   0.000000   0.000000   0.000000   0.000000   0.000000
     25       0.000000   0.000000   0.000000   0.000000   0.000000   0.000000
     26       0.000000   0.000000   0.000000   0.000000   0.000000   0.000000
     27       0.000000   0.000000   0.000000   0.000000   0.000000   0.000000
     28       0.000000   0.000000   0.000000   0.000000   0.000000   0.000000
     29       0.000000   0.000000   0.000000   0.000000   0.000000   0.000000
     30       0.000000   0.000000   0.000000   0.000000   0.000000   0.000000
     31       0.000000   0.000000   0.000000   0.000000   0.000000   0.000000
     32       0.000000   0.000000   0.000000   0.000000   0.000000   0.000000
     33       0.000000   0.000000   0.000000   0.000000   0.000000   0.000000
     34       0.000000   0.000000   0.000000   0.000000   0.000000   0.000000
     35       0.000000   0.000000   0.000000   0.000000   0.000000   0.000000
     36       0.000000   0.000000   0.000000   0.000000   0.000000   0.000000
     37       0.000000   0.000000   0.000000   0.000000   0.000000   0.000000
     38       0.000000   0.000000   0.000000   0.000000   0.000000   0.000000
     39       0.000000   0.000000   0.000000   0.000000   0.000000   0.000000
     40       0.000000   0.000000   0.000000   0.000000   0.000000   0.000000
     41       0.000000   0.000000   0.000000   0.000000   0.000000   0.000000
                  6          7          8          9         10         11    
      0       0.109197   0.011171   0.041757   0.040901  -0.035291  -0.037217
      1      -0.000280   0.211298   0.119585   0.033699   0.000258   0.003971
      2      -0.063880  -0.106320   0.187320   0.016549  -0.005395  -0.004246
      3      -0.081112  -0.026638   0.114785  -0.047953   0.023514  -0.007955
      4       0.013601   0.220313   0.068593  -0.002344  -0.007722   0.018327
      5       0.026138  -0.106830   0.183362   0.018541  -0.012855  -0.008785
      6      -0.037649   0.104567  -0.056387   0.022560  -0.030497   0.010412
      7      -0.006173  -0.187913  -0.065608  -0.057146   0.005728  -0.000669
      8       0.014682   0.054733  -0.128261  -0.082972   0.044382   0.032404
      9      -0.005759  -0.070877  -0.011834  -0.019576  -0.004776   0.001278
     10       0.002221  -0.172994  -0.097817   0.035498   0.004392  -0.010822
     11       0.000383   0.117282  -0.189732   0.043617  -0.008528  -0.003921
     12       0.933453  -0.063593   0.065520  -0.077373  -0.057647   0.038280
     13      -0.194123   0.134156   0.054835  -0.015713   0.024941   0.042946
     14      -0.035832   0.008982   0.062727  -0.040598   0.052273  -0.097092
     15      -0.093133   0.121241   0.050176   0.030232  -0.059896  -0.017439
     16       0.010660   0.215164   0.141455   0.043762   0.007134   0.000454
     17      -0.014226  -0.120311   0.227766   0.036812   0.010090  -0.011915
     18       0.145069  -0.029609   0.080002  -0.056519   0.044374  -0.076777
     19      -0.013208   0.221883   0.053343  -0.011947  -0.004216   0.020464
     20      -0.057452  -0.104845   0.159271   0.003310  -0.010861   0.009021
     21       0.017544  -0.068698  -0.098939   0.187896   0.013687  -0.038817
     22       0.005464   0.242053   0.169305   0.019425  -0.010022   0.001225
     23      -0.003243  -0.112318   0.184072  -0.047407  -0.021409   0.002937
     24      -0.076496  -0.088970  -0.312595  -0.018402  -0.379055  -0.122551
     25      -0.014275   0.222123   0.242351   0.237986   0.247368   0.045959
     26      -0.043736  -0.121586   0.092768  -0.131099  -0.188711  -0.033098
     27       0.002495  -0.105338   0.024920   0.541942   0.494362   0.052681
     28       0.002476   0.222462   0.140023   0.048872   0.019294   0.005415
     29      -0.006424  -0.125233   0.051237  -0.221405  -0.276640  -0.049539
     30       0.006289  -0.072214  -0.119940   0.170980  -0.019352  -0.046428
     31       0.094324   0.298061   0.163147  -0.263208  -0.330447  -0.050631
     32       0.110974  -0.083446   0.428165   0.178370   0.404074   0.094652
     33       0.004397  -0.011285   0.123925  -0.164374   0.063658   0.083255
     34       0.003299   0.213844   0.041378   0.002571  -0.003889  -0.004044
     35      -0.002169  -0.094025   0.219816   0.093960  -0.038858  -0.077105
     36      -0.011552   0.063625   0.114558  -0.277360   0.137525  -0.049219
     37      -0.017498   0.326998   0.021604  -0.146486   0.102997  -0.261067
     38       0.012459  -0.331984   0.287383   0.317450  -0.237073   0.665784
     39       0.015808   0.149622   0.088387  -0.289186   0.172934  -0.345819
     40       0.000976   0.054138   0.096525   0.227315  -0.160601   0.376510
     41       0.022872   0.013090   0.210245   0.082478  -0.001648  -0.387896
                 12         13         14         15         16         17    
      0      -0.081812  -0.012413   0.046390  -0.171114   0.236019   0.075750
      1       0.031652  -0.059529  -0.159925   0.009358  -0.065262   0.133853
      2      -0.000911  -0.014212   0.167750   0.085198  -0.012309   0.047205
      3       0.127888  -0.064350   0.025226  -0.307867  -0.054774  -0.046197
      4      -0.038750  -0.024391  -0.104116   0.075367   0.042364  -0.165003
      5      -0.033335  -0.002536   0.176993   0.091799  -0.027214  -0.001264
      6      -0.138944   0.161544   0.019076   0.017032  -0.062495  -0.003703
      7      -0.050725   0.046376   0.003509  -0.000976   0.009855  -0.002883
      8       0.108841  -0.039380  -0.016740  -0.019404   0.016034  -0.002107
      9       0.282662   0.034128  -0.037313   0.108668   0.027171   0.002894
     10      -0.027716   0.001119   0.010365  -0.031343  -0.010751   0.002121
     11      -0.060123   0.005865   0.006099  -0.022936   0.003593   0.000574
     12      -0.041666   0.168186   0.075198   0.189279  -0.341887  -0.152283
     13      -0.194796  -0.068624  -0.116830   0.152166   0.263573  -0.118995
     14      -0.057234  -0.055825   0.139546  -0.130251  -0.192303   0.020562
     15      -0.236119   0.059119   0.062049  -0.005132   0.523525   0.106530
     16       0.066859  -0.067472  -0.093800   0.006490  -0.091664   0.217762
     17       0.079882  -0.036855   0.288787   0.057879  -0.089010   0.210306
     18       0.310133  -0.072369   0.107985  -0.588573  -0.515672  -0.023170
     19      -0.025219  -0.015876  -0.009298   0.098484   0.094456  -0.196105
     20      -0.045991   0.014690   0.334231   0.179941   0.147044  -0.064458
     21      -0.078759  -0.239065  -0.012807   0.051112  -0.015174   0.067396
     22       0.074571  -0.035315   0.068554   0.012566  -0.001815   0.166066
     23      -0.077190   0.074020  -0.139951  -0.007429  -0.012703   0.189156
     24      -0.063365  -0.632371   0.029846   0.216764  -0.178127  -0.006242
     25       0.143344   0.003246   0.349481   0.155924  -0.043477  -0.063739
     26      -0.069255  -0.100065  -0.114030   0.071128  -0.086626   0.154980
     27      -0.069674  -0.063706  -0.147825   0.113956  -0.079120   0.079954
     28       0.042014  -0.057907  -0.130779   0.027231  -0.077015   0.267889
     29      -0.139772  -0.081455  -0.415947  -0.025078  -0.103877   0.366215
     30      -0.076197  -0.278179  -0.010804   0.067600  -0.032770   0.057719
     31       0.067291  -0.015645   0.243025  -0.131245   0.143033   0.151998
     32      -0.097963   0.506319  -0.195467  -0.185204   0.160963   0.287996
     33      -0.265060  -0.147511  -0.000682   0.023243  -0.011178  -0.070859
     34       0.116399  -0.000272   0.107345  -0.016510   0.000350  -0.110491
     35       0.000042   0.018747  -0.115540  -0.027380   0.001847  -0.222122
     36      -0.491136  -0.178825  -0.068291   0.250552   0.040390  -0.077468
     37      -0.083210  -0.007714   0.057037   0.204617   0.042973  -0.110142
     38      -0.123742  -0.123424  -0.215332  -0.017922   0.056157  -0.286529
     39      -0.314119  -0.070887  -0.098013   0.109857   0.002543  -0.127181
     40       0.321156  -0.015932   0.050928  -0.306817  -0.010753  -0.194149
     41       0.067832   0.112454  -0.282247  -0.101344   0.013980  -0.349945
                 18         19         20         21         22         23    
      0       0.044704   0.016076   0.025903  -0.029846   0.124795   0.075987
      1       0.001716   0.069681  -0.000299  -0.038869   0.035856   0.013492
      2      -0.014329  -0.028883  -0.017233  -0.006403   0.015159  -0.026483
      3      -0.130382  -0.024873  -0.025325  -0.014295  -0.046886   0.024969
      4       0.021528  -0.074777  -0.016883   0.025820   0.032119  -0.010272
      5       0.006036   0.045211  -0.008961  -0.055220   0.023296  -0.016571
      6       0.000439   0.000924   0.005789  -0.004127   0.003639   0.004714
      7      -0.000182   0.000874  -0.002609   0.000522   0.000330  -0.000160
      8      -0.000667  -0.000169  -0.000506   0.000791  -0.001022  -0.000701
      9       0.020362   0.000709   0.002079  -0.001616   0.001474   0.000630
     10      -0.000976   0.000072  -0.001286   0.001453   0.002276  -0.003262
     11      -0.012387  -0.000356   0.003437   0.000025   0.003446  -0.004687
     12      -0.338962   0.027779  -0.169359   0.060564  -0.242480   0.111759
     13      -0.219472  -0.055984   0.104613  -0.141701  -0.298647   0.349140
     14       0.718071   0.005479  -0.323929   0.027036  -0.431784   0.566689
     15      -0.045985   0.281948  -0.689316   0.342702  -0.228820  -0.411753
     16      -0.031662   0.176801  -0.030737  -0.192885   0.058915   0.014841
     17      -0.072702   0.130874   0.005209  -0.336510   0.094637   0.033358
     18       0.394822  -0.108258  -0.082326   0.046253   0.327087  -0.370663
     19      -0.022606  -0.060537  -0.007605  -0.043756   0.004117   0.019407
     20      -0.145963   0.073855   0.005572  -0.201378  -0.083558   0.105663
     21       0.015935  -0.058536   0.053245  -0.002351  -0.110668  -0.062890
     22      -0.011635  -0.026877  -0.003892   0.027276  -0.027004  -0.003783
     23      -0.019738  -0.092580   0.009362   0.097605   0.024496   0.031697
     24      -0.107408   0.021799  -0.142817   0.136452   0.205888   0.161639
     25      -0.108585  -0.377072  -0.034155   0.447413   0.198829   0.168110
     26      -0.077495  -0.065809  -0.077318   0.166957   0.160140   0.126727
     27      -0.084685   0.134246  -0.147228   0.038266   0.181515   0.144499
     28      -0.046330   0.222545  -0.110884  -0.116852  -0.014186   0.004965
     29      -0.013364   0.252068  -0.064149  -0.201642  -0.128800  -0.085264
     30      -0.000698  -0.051235   0.030728   0.019100  -0.062895  -0.031153
     31       0.112780  -0.372469   0.299194   0.050062  -0.364080  -0.184833
     32       0.092554  -0.058751   0.142417  -0.125102  -0.315337  -0.213023
     33       0.017859   0.061630   0.036260   0.037218  -0.008622  -0.008132
     34       0.011717   0.056839   0.013577  -0.013080  -0.008928  -0.018444
     35       0.020380   0.096289   0.068002   0.062772  -0.014199  -0.010105
     36       0.101157  -0.145437  -0.031451  -0.164756   0.123859  -0.088391
     37       0.078398  -0.038785   0.021253  -0.113961   0.093590  -0.080409
     38       0.130378  -0.366660  -0.233502  -0.361911   0.115993  -0.085497
     39      -0.067001  -0.272366  -0.190179  -0.239767   0.026149  -0.044480
     40      -0.022929   0.063385  -0.042243   0.054439  -0.134346   0.092156
     41      -0.121549  -0.382016  -0.301770  -0.297209  -0.049360   0.016571
                 24         25         26         27         28         29    
      0      -0.007441  -0.002249   0.013774  -0.004165   0.020943   0.011431
      1      -0.229374   0.042276  -0.088446   0.025949   0.027599  -0.060221
      2      -0.077192   0.001370   0.076489  -0.033588   0.046646   0.083746
      3      -0.036372   0.044930   0.043555   0.093535  -0.014693   0.045291
      4      -0.053622   0.063402   0.252484  -0.021283  -0.004349   0.066768
      5      -0.082840   0.002949   0.031520   0.048096   0.111871  -0.042853
      6       0.000924   0.000354   0.000513  -0.000652   0.000658  -0.000009
      7       0.000952  -0.000443  -0.000051  -0.000392   0.000322  -0.000060
      8       0.000686   0.000109  -0.000752   0.000087  -0.000229  -0.000537
      9       0.000531  -0.002424  -0.000580  -0.002838   0.001887  -0.002938
     10       0.002461   0.006123  -0.001497   0.000976  -0.000463   0.001176
     11       0.000541  -0.000195  -0.000133   0.000069   0.000170   0.000189
     12      -0.113729  -0.065233   0.043905   0.106551  -0.084885   0.087409
     13      -0.319660  -0.803719   0.218220  -0.032357  -0.009688  -0.105274
     14      -0.039482   0.103961   0.020688   0.073341  -0.075074   0.070136
     15      -0.224809  -0.086569  -0.087196  -0.000163  -0.169737  -0.042841
     16      -0.215230   0.040108  -0.114189  -0.195132  -0.349002   0.054931
     17       0.004292   0.003020   0.034238  -0.452941  -0.633792   0.320084
     18      -0.078518  -0.446948   0.365670  -0.097616  -0.113242  -0.325780
     19       0.094047   0.143134   0.367048   0.014123  -0.257200  -0.348697
     20       0.202037   0.236793   0.172213   0.147556  -0.303788  -0.720567
     21      -0.015360   0.011942  -0.010261  -0.006114  -0.007964  -0.006845
     22       0.185615  -0.024664   0.054130   0.020403   0.043012   0.003445
     23       0.019269  -0.005247  -0.077362  -0.008755  -0.037430  -0.028153
     24       0.167910  -0.062286   0.030460   0.009119  -0.004171   0.067840
     25      -0.007761  -0.032729  -0.229774  -0.028483  -0.190983  -0.072493
     26       0.103453  -0.038876  -0.061106  -0.005253  -0.042610   0.006990
     27       0.276229  -0.039717   0.051068   0.026728  -0.000170  -0.002109
     28       0.502755  -0.067760   0.246384   0.047699   0.079198   0.035790
     29       0.406669  -0.053359   0.245629   0.019744   0.036991   0.041209
     30      -0.009712   0.007130  -0.022712  -0.005722  -0.012932  -0.014399
     31      -0.103494   0.056638  -0.131518  -0.032498  -0.150252  -0.034998
     32       0.095299  -0.000787   0.124351  -0.006092   0.019321   0.103415
     33       0.034526   0.011913  -0.041118  -0.077379   0.025385  -0.021335
     34       0.065573  -0.031529  -0.187543  -0.000572   0.009344   0.024881
     35       0.042510  -0.014877  -0.021781   0.020009  -0.042467   0.008707
     36       0.067291  -0.071078  -0.134295   0.330637  -0.175565   0.086558
     37       0.084597  -0.099155  -0.210601   0.354710  -0.194673   0.118347
     38       0.134127  -0.076900  -0.325978   0.266368  -0.081471   0.072082
     39       0.089492   0.021093  -0.234023  -0.163584   0.138851  -0.050902
     40       0.093875   0.036515  -0.084665  -0.439385   0.158156  -0.151650
     41       0.137024   0.046962  -0.241428  -0.394825   0.229785  -0.153899
                 30         31         32         33         34         35    
      0      -0.005947  -0.008489   0.017900   0.043419   0.008047   0.000310
      1      -0.032838  -0.021387  -0.005364   0.089167   0.010128  -0.000266
      2      -0.000261  -0.011156  -0.010347   0.333476   0.045354  -0.000636
      3       0.001226   0.006989   0.004856  -0.041141  -0.007823   0.000241
      4       0.004209   0.020223   0.007965  -0.090129  -0.002483  -0.000411
      5      -0.026222   0.034471   0.020463  -0.287346  -0.061878  -0.000238
      6       0.000244  -0.000198   0.000154  -0.000028  -0.000453  -0.000053
      7      -0.000145   0.000138  -0.000245   0.000078  -0.000107  -0.000015
      8      -0.000274  -0.000209  -0.000060  -0.000286  -0.000431   0.000007
      9      -0.001183   0.000439   0.000417  -0.005670  -0.000600  -0.000097
     10       0.000072  -0.000351  -0.000141   0.001487  -0.000145   0.000009
     11      -0.000070  -0.000020  -0.000179   0.000994  -0.000319   0.000019
     12       0.056184  -0.018224  -0.024944   0.271562   0.022370   0.002363
     13       0.003198   0.017207   0.002390  -0.055883   0.027071   0.000031
     14       0.008428  -0.008092   0.009725   0.000569   0.034775  -0.001979
     15       0.000946   0.031428  -0.019750  -0.096676  -0.017648   0.001215
     16       0.003408  -0.000049  -0.000564  -0.303746  -0.038271  -0.003944
     17       0.082650   0.022720   0.003749  -0.311570  -0.033020   0.005198
     18       0.007664  -0.007475  -0.032116   0.074634   0.039493  -0.000065
     19       0.026994  -0.055070  -0.043375   0.240348   0.088615   0.004890
     20       0.005085  -0.087002  -0.055086   0.192045   0.083189  -0.001866
     21       0.052515  -0.014251   0.040529  -0.018483  -0.002867   0.050203
     22       0.118036  -0.025192  -0.038931  -0.040730  -0.003543   0.026763
     23       0.080945   0.042925  -0.009493  -0.050446  -0.005968   0.015117
     24      -0.382932  -0.346636  -0.410384  -0.177289  -0.012543   0.136275
     25      -0.393093  -0.185236   0.540214  -0.098723  -0.016415   0.010804
     26      -0.128684  -0.120758  -0.187774  -0.122893  -0.011035  -0.278005
     27      -0.284191   0.540755  -0.299492   0.116390   0.012236   0.125233
     28      -0.227365   0.166324   0.153621   0.119024   0.011452  -0.316014
     29      -0.318817   0.005875   0.527818   0.153967   0.011545   0.178264
     30       0.086814   0.032484   0.046212  -0.008501  -0.001610  -0.864651
     31      -0.505328   0.454488  -0.189832   0.034116  -0.000029  -0.006740
     32      -0.383908  -0.533118  -0.250116  -0.179736  -0.014200  -0.074043
     33      -0.001939  -0.002794  -0.001926   0.003882   0.016357   0.000012
     34       0.001011  -0.002638   0.000800  -0.006459   0.072030  -0.000049
     35       0.007923  -0.003492  -0.003422   0.019268   0.010202   0.000177
     36       0.020523  -0.016347  -0.009965   0.262791  -0.453284  -0.000958
     37       0.025174  -0.018082  -0.010838   0.282641  -0.460687   0.000935
     38       0.008989  -0.003789   0.006653  -0.042302   0.206273   0.000106
     39      -0.014549   0.002051   0.003049  -0.103357   0.252249   0.000946
     40      -0.009816  -0.021367  -0.016265   0.313714  -0.652663   0.000089
     41      -0.020678  -0.008537  -0.006456   0.068696  -0.124931  -0.000784
                 36         37         38         39         40         41    
      0       0.000052   0.001259  -0.001484   0.005331  -0.000496  -0.000222
      1      -0.001356   0.004210   0.012073  -0.074123  -0.000773  -0.000053
      2       0.006460  -0.002178  -0.006431   0.042369   0.000069   0.000187
      3      -0.006676   0.001426   0.000007  -0.000091  -0.000231   0.000719
      4       0.070261  -0.011791  -0.000260  -0.004914   0.001844   0.000332
      5      -0.045436   0.007941   0.000819  -0.001985  -0.002898   0.000238
      6      -0.000037  -0.000008  -0.000046  -0.000239   0.000007   0.000022
      7      -0.000042   0.000085  -0.000092   0.000174   0.000055   0.000056
      8       0.000015   0.000036  -0.000070  -0.000039   0.000066   0.000033
      9      -0.000090   0.000041   0.000023  -0.000137   0.000072  -0.000049
     10      -0.000028   0.000002   0.000001   0.000056  -0.000015  -0.000029
     11       0.000031  -0.000015  -0.000006   0.000021  -0.000015   0.000013
     12       0.006147  -0.003842  -0.001093   0.004846  -0.003644  -0.001484
     13       0.004916  -0.000212  -0.000715  -0.001405   0.000373   0.001632
     14      -0.004701   0.001261  -0.000734  -0.000680  -0.001275  -0.000512
     15      -0.001588   0.002868   0.011179  -0.054648  -0.000243   0.001116
     16       0.034854  -0.045250  -0.147203   0.861556   0.002943  -0.000811
     17      -0.018449   0.025470   0.081009  -0.463654   0.000777   0.000107
     18       0.083085  -0.013077  -0.000205  -0.006511   0.002700   0.002907
     19      -0.849326   0.144875   0.006615   0.044532  -0.013706  -0.001238
     20       0.482982  -0.084652  -0.005431  -0.026712   0.009819  -0.001832
     21       0.011624   0.066966  -0.023991  -0.000329  -0.000012  -0.000178
     22      -0.009719  -0.052785  -0.033175  -0.006192   0.000104   0.000070
     23       0.001781   0.002714   0.081277   0.014610   0.000129   0.000079
     24      -0.018225  -0.142601   0.351218   0.050528   0.000985   0.000458
     25      -0.005359  -0.019414   0.017305  -0.000212  -0.000365  -0.000018
     26       0.047411   0.361557  -0.784919  -0.118147  -0.002822  -0.000923
     27      -0.041462  -0.221550  -0.145828  -0.033349   0.000090   0.000031
     28       0.115868   0.648752   0.387182   0.096287  -0.001181  -0.000113
     29      -0.068113  -0.366708  -0.208909  -0.048529   0.000333   0.000256
     30      -0.081550  -0.451711   0.089821  -0.010009  -0.000574   0.000822
     31      -0.003206  -0.012858  -0.004621  -0.003849  -0.000263  -0.000366
     32      -0.006426  -0.036548   0.020820  -0.000174  -0.000246  -0.000350
     33      -0.000115  -0.000003  -0.000135   0.000076   0.014869   0.070972
     34      -0.001121   0.000292  -0.000112   0.000444   0.049148  -0.024823
     35       0.001840  -0.000408   0.000041  -0.000144  -0.021753  -0.031044
     36      -0.007507   0.001878  -0.000065   0.000086   0.420539  -0.562572
     37       0.009065  -0.001304  -0.000018   0.002320  -0.404967   0.568666
     38      -0.004058   0.000572  -0.000395   0.003121  -0.100163   0.101297
     39       0.007601  -0.003048   0.001099   0.002687  -0.620430  -0.430356
     40       0.006006  -0.002386   0.000747   0.002072  -0.281186  -0.227923
     41      -0.012629   0.002947  -0.000946   0.002118   0.426225   0.325693


-----------
IR SPECTRUM
-----------

 Mode    freq (cm**-1)   T**2         TX         TY         TZ
-------------------------------------------------------------------
   7:        54.13   12.576310  ( -0.718643   3.143942  -1.474955)
   8:        65.66   16.528910  ( -0.311165   1.916025   3.572245)
   9:       100.58   19.969477  ( -2.822441   1.456123   3.143725)
  10:       145.69    8.440273  ( -2.881446  -0.226154   0.293928)
  11:       176.44   30.804472  ( -3.663523   1.688352   3.812157)
  12:       191.93   64.375612  ( -7.474391   1.031926   2.728410)
  13:       215.03   25.637543  (  3.435581  -2.593212  -2.666379)
  14:       306.23   22.462689  (  2.929890  -3.032990  -2.163192)
  15:       405.72   55.648749  (  6.792912  -1.379323  -2.757274)
  16:       427.91  386.001837  (-16.767956   5.306042   8.756907)
  17:       533.95   28.473318  ( -4.845838   0.161066   2.228279)
  18:       810.62  523.355460  (-21.146920   3.547223   7.973734)
  19:       919.70   80.628010  (  1.319724  -3.712899  -8.068502)
  20:       962.24  118.965261  (-10.514730  -0.139065  -2.895923)
  21:       975.73   99.565558  (  0.470920  -2.893390  -9.537929)
  22:      1066.56   15.015760  (  3.457161   1.661715   0.550001)
  23:      1101.69   18.525531  ( -2.622029   3.001068   1.626065)
  24:      1157.71    8.151365  ( -2.347468  -1.343498   0.914207)
  25:      1179.22    6.752998  (  0.658920  -2.038995   1.470143)
  26:      1211.41    4.468824  ( -0.782711   1.909275  -0.459191)
  27:      1297.01   15.378050  (  3.848918  -0.176260  -0.729940)
  28:      1330.49    2.781068  ( -0.224092   1.346205   0.958427)
  29:      1363.39    1.792516  (  0.732870   0.112576   1.114785)
  30:      1432.16   20.384715  (  0.526615  -3.508776  -2.792111)
  31:      1500.93    7.544429  ( -0.469747   0.867425  -2.563463)
  32:      1525.81   10.886785  ( -2.798837   1.694665  -0.425916)
  33:      1653.97    4.986464  (  2.106052   0.695815  -0.258558)
  34:      1721.93   47.887087  ( -2.573985  -5.885572   2.573272)
  35:      3056.87   13.961638  (  2.495203   2.343586   1.497732)
  36:      3147.31   22.127520  (  1.184507   4.534705  -0.401145)
  37:      3156.36   19.163508  (  2.131125  -3.808573   0.341448)
  38:      3206.52    6.012354  ( -0.367962  -1.299769   2.046352)
  39:      3242.71    8.469715  ( -1.389485  -2.285552   1.146864)
  40:      3514.47    8.086964  ( -2.152233  -0.220300   1.845623)
  41:      3617.79   12.818372  ( -3.384326  -0.410154   1.093837)

The first frequency considered to be a vibration is 7
The total number of vibrations considered is 35


--------------------------
THERMOCHEMISTRY AT 298.15K
--------------------------

Temperature         ... 298.15 K
Pressure            ... 1.00 atm
Total Mass          ... 129.01 AMU

Throughout the following assumptions are being made:
  (1) The electronic state is orbitally nondegenerate
  (2) There are no thermally accessible electronically excited states
  (3) Hindered rotations indicated by low frequency modes are not
      treated as such but are treated as vibrations and this may
      cause some error
  (4) All equations used are the standard statistical mechanics
      equations for an ideal gas
  (5) All vibrations are strictly harmonic

freq.      54.13  E(vib)   ...       0.52 
freq.      65.66  E(vib)   ...       0.50 
freq.     100.58  E(vib)   ...       0.46 
freq.     145.69  E(vib)   ...       0.41 
freq.     176.44  E(vib)   ...       0.38 
freq.     191.93  E(vib)   ...       0.36 
freq.     215.03  E(vib)   ...       0.34 
freq.     306.23  E(vib)   ...       0.26 
freq.     405.72  E(vib)   ...       0.19 
freq.     427.91  E(vib)   ...       0.18 
freq.     533.95  E(vib)   ...       0.13 
freq.     810.62  E(vib)   ...       0.05 
freq.     919.70  E(vib)   ...       0.03 
freq.     962.24  E(vib)   ...       0.03 
freq.     975.73  E(vib)   ...       0.03 
freq.    1066.56  E(vib)   ...       0.02 
freq.    1101.69  E(vib)   ...       0.02 
freq.    1157.71  E(vib)   ...       0.01 
freq.    1179.22  E(vib)   ...       0.01 
freq.    1211.41  E(vib)   ...       0.01 
freq.    1297.01  E(vib)   ...       0.01 
freq.    1330.49  E(vib)   ...       0.01 
freq.    1363.39  E(vib)   ...       0.01 
freq.    1432.16  E(vib)   ...       0.00 
freq.    1500.93  E(vib)   ...       0.00 
freq.    1525.81  E(vib)   ...       0.00 
freq.    1653.97  E(vib)   ...       0.00 
freq.    1721.93  E(vib)   ...       0.00 
freq.    3056.87  E(vib)   ...       0.00 
freq.    3147.31  E(vib)   ...       0.00 
freq.    3156.36  E(vib)   ...       0.00 
freq.    3206.52  E(vib)   ...       0.00 
freq.    3242.71  E(vib)   ...       0.00 
freq.    3514.47  E(vib)   ...       0.00 
freq.    3617.79  E(vib)   ...       0.00 

------------
INNER ENERGY
------------

The inner energy is: U= E(el) + E(ZPE) + E(vib) + E(rot) + E(trans)
    E(el)   - is the total energy from the electronic structure calculation
              = E(kin-el) + E(nuc-el) + E(el-el) + E(nuc-nuc)
    E(ZPE)  - the the zero temperature vibrational energy from the frequency calculation
    E(vib)  - the the finite temperature correction to E(ZPE) due to population
              of excited vibrational states
    E(rot)  - is the rotational thermal energy
    E(trans)- is the translational thermal energy

Summary of contributions to the inner energy U:
Electronic energy                ...  -1092.81800990 Eh
Zero point energy                ...      0.10656328 Eh      66.87 kcal/mol
Thermal vibrational correction   ...      0.00628863 Eh       3.95 kcal/mol
Thermal rotational correction    ...      0.00141627 Eh       0.89 kcal/mol
Thermal translational correction ...      0.00141627 Eh       0.89 kcal/mol
-----------------------------------------------------------------------
Total thermal energy                  -1092.70232545 Eh


Summary of corrections to the electronic energy:
(perhaps to be used in another calculation)
Total thermal correction                  0.00912117 Eh       5.72 kcal/mol
Non-thermal (ZPE) correction              0.10656328 Eh      66.87 kcal/mol
-----------------------------------------------------------------------
Total correction                          0.11568445 Eh      72.59 kcal/mol


--------
ENTHALPY
--------

The enthalpy is H = U + kB*T
                kB is Boltzmann's constant
Total free energy                 ...  -1092.70232545 Eh 
Thermal Enthalpy correction       ...      0.00094421 Eh       0.59 kcal/mol
-----------------------------------------------------------------------
Total Enthalpy                    ...  -1092.70138124 Eh


Vibrational entropy computed according to the QRRHO of S. Grimme
Chem.Eur.J. 2012 18 9955


-------
ENTROPY
-------

The entropy contributions are T*S = T*(S(el)+S(vib)+S(rot)+S(trans)
     S(el)   - electronic entropy
     S(vib)  - vibrational entropy
     S(rot)  - rotational entropy
     S(trans)- translational entropy
The entropies will be listed as mutliplied by the temperature to get
units of energy

Electronic entropy                ...      0.00000000 Eh      0.00 kcal/mol
Vibrational entropy               ...      0.01145144 Eh      7.19 kcal/mol
Rotational entropy                ...      0.01299070 Eh      8.15 kcal/mol
Translational entropy             ...      0.01923199 Eh     12.07 kcal/mol
-----------------------------------------------------------------------
Final entropy term                ...      0.04367413 Eh     27.41 kcal/mol


CAUTION: The rotational entropy is not quite correctly treated here
         because it includes a symmetry number that is not yet correctly
         implemented in ORCA!
For a nonlinear molecule the correct rotational entropy is:
    S(rot) = R*(ln(qrot/sn)+1.5)
    R    = 8.31441 J/mol/K = 1.987191683e-3 kcal/mol/K
    qrot = 632418.8655054
    sn is the rotational symmetry number. We have assumed 3 here
       if it is different for your molecule then you should correct
       the printed rotational entropy by manually evaluating the equation
       as given above

For convenience we print out the resulting values for sn=1 - 12:
 sn= 1  qrot/sn=  632418.8655 T*S(rot)=     8.80 kcal/mol T*S(tot)=    28.06 kcal/mol
 sn= 2  qrot/sn=  316209.4328 T*S(rot)=     8.39 kcal/mol T*S(tot)=    27.65 kcal/mol
 sn= 3  qrot/sn=  210806.2885 T*S(rot)=     8.15 kcal/mol T*S(tot)=    27.41 kcal/mol
 sn= 4  qrot/sn=  158104.7164 T*S(rot)=     7.98 kcal/mol T*S(tot)=    27.24 kcal/mol
 sn= 5  qrot/sn=  126483.7731 T*S(rot)=     7.85 kcal/mol T*S(tot)=    27.10 kcal/mol
 sn= 6  qrot/sn=  105403.1443 T*S(rot)=     7.74 kcal/mol T*S(tot)=    27.00 kcal/mol
 sn= 7  qrot/sn=   90345.5522 T*S(rot)=     7.65 kcal/mol T*S(tot)=    26.90 kcal/mol
 sn= 8  qrot/sn=   79052.3582 T*S(rot)=     7.57 kcal/mol T*S(tot)=    26.82 kcal/mol
 sn= 9  qrot/sn=   70268.7628 T*S(rot)=     7.50 kcal/mol T*S(tot)=    26.75 kcal/mol
 sn=10  qrot/sn=   63241.8866 T*S(rot)=     7.44 kcal/mol T*S(tot)=    26.69 kcal/mol
 sn=11  qrot/sn=   57492.6241 T*S(rot)=     7.38 kcal/mol T*S(tot)=    26.64 kcal/mol
 sn=12  qrot/sn=   52701.5721 T*S(rot)=     7.33 kcal/mol T*S(tot)=    26.58 kcal/mol


-------------------
GIBBS FREE ENTHALPY
-------------------

The Gibbs free enthalpy is G = H - T*S

Total enthalpy                    ...  -1092.70138124 Eh 
Total entropy correction          ...     -0.04367413 Eh    -27.41 kcal/mol
-----------------------------------------------------------------------
Final Gibbs free enthalpy         ...  -1092.74505537 Eh

For completeness - the Gibbs free enthalpy minus the electronic energy
G-E(el)                           ...      0.07295452 Eh     45.78 kcal/mol


Total Time for Numerical Frequencies  :      2783.151 sec
Time for Reference State(s)           :       103.383 sec
Time for Displacements                :      2679.316 sec

Timings for individual modules:

Sum of individual times         ...      251.361 sec (=   4.189 min)
GTO integral calculation        ...        0.749 sec (=   0.012 min)   0.3 %
SCF iterations                  ...       60.835 sec (=   1.014 min)  24.2 %
MP2 module                      ...      189.776 sec (=   3.163 min)  75.5 %
                             ****ORCA TERMINATED NORMALLY****
TOTAL RUN TIME: 0 days 0 hours 48 minutes 51 seconds 680 msec
