
                                 *****************
                                 * O   R   C   A *
                                 *****************

           --- An Ab Initio, DFT and Semiempirical electronic structure package ---

                  #######################################################
                  #                        -***-                        #
                  #  Department of molecular theory and spectroscopy    #
                  #              Directorship: Frank Neese              #
                  # Max Planck Institute for Chemical Energy Conversion #
                  #                  D-45470 Muelheim/Ruhr              #
                  #                       Germany                       #
                  #                                                     #
                  #                  All rights reserved                #
                  #                        -***-                        #
                  #######################################################


                         Program Version 4.0.1.2 - RELEASE -


 With contributions from (in alphabetic order):
   Daniel Aravena         : Magnetic Properties
   Michael Atanasov       : Ab Initio Ligand Field Theory
   Ute Becker             : Parallelization
   Martin Brehm           : Molecular dynamics
   Dmytro Bykov           : SCF Hessian
   Vijay G. Chilkuri      : MRCI spin determinant printing
   Dipayan Datta          : RHF DLPNO-CCSD density
   Achintya Kumar Dutta   : EOM-CC, STEOM-CC
   Dmitry Ganyushin       : Spin-Orbit,Spin-Spin,Magnetic field MRCI
   Yang Guo               : DLPNO-NEVPT2, CIM, IAO-localization
   Andreas Hansen         : Spin unrestricted coupled pair/coupled cluster methods
   Lee Huntington         : MR-EOM, pCC
   Robert Izsak           : Overlap fitted RIJCOSX, COSX-SCS-MP3, EOM
   Christian Kollmar      : KDIIS, OOCD, Brueckner-CCSD(T), CCSD density
   Simone Kossmann        : Meta GGA functionals, TD-DFT gradient, OOMP2, MP2 Hessian
   Martin Krupicka        : AUTO-CI
   Dagmar Lenk            : GEPOL surface
   Dimitrios Liakos       : Extrapolation schemes; parallel MDCI
   Dimitrios Manganas     : ROCIS; embedding schemes
   Dimitrios Pantazis     : SARC Basis sets
   Taras Petrenko         : DFT Hessian,TD-DFT gradient, ASA, ECA, R-Raman, ABS, FL, XAS/XES, NRVS
   Peter Pinski           : DLPNO-MP2
   Christoph Reimann      : Effective Core Potentials
   Marius Retegan         : Local ZFS, SOC
   Christoph Riplinger    : Optimizer, TS searches, QM/MM, DLPNO-CCSD(T), (RO)-DLPNO pert. Triples
   Tobias Risthaus        : Range-separated hybrids, TD-DFT gradient, RPA, STAB
   Michael Roemelt        : Restricted open shell CIS
   Masaaki Saitow         : Open-shell DLPNO
   Barbara Sandhoefer     : DKH picture change effects
   Kantharuban Sivalingam : CASSCF convergence, NEVPT2, FIC-MRCI
   Georgi Stoychev        : AutoAux
   Boris Wezisla          : Elementary symmetry handling
   Frank Wennmohs         : Technical directorship


 We gratefully acknowledge several colleagues who have allowed us to
 interface, adapt or use parts of their codes:
   Stefan Grimme, W. Hujo, H. Kruse,             : VdW corrections, initial TS optimization,
                  C. Bannwarth                     DFT functionals, gCP, sTDA/sTD-DF
   Ed Valeev                                     : LibInt (2-el integral package), F12 methods
   Garnet Chan, S. Sharma, J. Yang, R. Olivares  : DMRG
   Ulf Ekstrom                                   : XCFun DFT Library
   Mihaly Kallay                                 : mrcc  (arbitrary order and MRCC methods)
   Andreas Klamt, Michael Diedenhofen            : otool_cosmo (COSMO solvation model)
   Jiri Pittner, Ondrej Demel                    : Mk-CCSD
   Frank Weinhold                                : gennbo (NPA and NBO analysis)
   Christopher J. Cramer and Donald G. Truhlar   : smd solvation model


 Your calculation uses the libint2 library for the computation of 2-el integrals
 For citations please refer to: http://libint.valeyev.net

 This ORCA versions uses:
   CBLAS   interface :  Fast vector & matrix operations
   LAPACKE interface :  Fast linear algebra routines
   SCALAPACK package :  Parallel linear algebra routines




*****************************************
The coordinations will be read from file: inp.xyz
*****************************************


Your calculation utilizes the basis: 6-311G(d)
   H, Li - Ne  : R. Krishnan, J. S. Binkley, R. Seeger and J. A. Pople, J. Chem. Phys. 72, 650 (1980).
   Na - Ar     : A. D. McLean and G. S. Chandler J. Chem. Phys. 72, 5639, (1980).
   K  - Ca     : J.-P. Blaudeau, M. P. McGrath, L. A. Curtiss and L. Radom, J. Chem. Phys. 107, 5016 (1997).
   Ga - Kr     : L. A. Curtiss, M. P. McGrath, J.-P. Blandeau, N. E. Davis, R. C. Binning and L. Radom, J. Chem. Phys. 103, 6104 (1995).
   Pol./Diff.
   H, Li - Cl  : T. Clark, J. Chandrasekhar and P. v. R. Schleyer, J. Comp. Chem. 4, 294 (1983).
   H - Ne      : M. J. Frisch, J. A. Pople and J. S. Binkley, J. Chem. Phys. 80, 3265 (1984).

================================================================================
                                        WARNINGS
                       Please study these warnings very carefully!
================================================================================

Warning: TCutStore was < 0. Adjusted to Thresh (uncritical)

WARNING: TCut can not be >=Thresh
  ===> : TCut is set to 0.01*Thresh

WARNING: Geometry Optimization
  ===> : Switching off AutoStart
         For restart on a previous wavefunction, please use MOREAD

WARNING: Post HF methods need fully converged wavefunctions
  ===> : Setting SCFConvForced true
         You can overwrite this default with %scf ConvForced false 


INFO   : the flag for use of LIBINT has been found!

================================================================================
                                       INPUT FILE
================================================================================
NAME = run.inp
|  1> ! MP2 6-311G(d) Opt NoFrozenCore ExtremeSCF
|  2> 
|  3> %pal nprocs 1
|  4> end
|  5> 
|  6> %mp2 MaxCore 5000
|  7> end
|  8> 
|  9> *xyzfile 0 1 inp.xyz
| 10> 
| 11>                          ****END OF INPUT****
================================================================================

                       *****************************
                       * Geometry Optimization Run *
                       *****************************

Geometry optimization settings:
Update method            Update   .... BFGS
Choice of coordinates    CoordSys .... Redundant Internals
Initial Hessian          InHess   .... Almoef's Model

Convergence Tolerances:
Energy Change            TolE     ....  5.0000e-06 Eh
Max. Gradient            TolMAXG  ....  3.0000e-04 Eh/bohr
RMS Gradient             TolRMSG  ....  1.0000e-04 Eh/bohr
Max. Displacement        TolMAXD  ....  4.0000e-03 bohr
RMS Displacement         TolRMSD  ....  2.0000e-03 bohr

------------------------------------------------------------------------------
                        ORCA OPTIMIZATION COORDINATE SETUP
------------------------------------------------------------------------------

The optimization will be done in new redundant internal coordinates
Making redundant internal coordinates   ...  (new redundants) done
Evaluating the initial hessian          ...  (Almloef) done
Evaluating the coordinates              ...  done
Calculating the B-matrix                .... done
Calculating the G-matrix                .... done
Diagonalizing the G-matrix              .... done
The first mode is                       ....   24
The number of degrees of freedom        ....   33

    -----------------------------------------------------------------
                    Redundant Internal Coordinates


    -----------------------------------------------------------------
         Definition                    Initial Value    Approx d2E/dq
    -----------------------------------------------------------------
      1. B(C   1,C   0)                  1.5234         0.382737   
      2. B(Cl  2,C   0)                  1.8232         0.285501   
      3. B(H   3,C   1)                  1.0922         0.357191   
      4. B(H   4,C   0)                  1.0883         0.362341   
      5. B(H   5,C   1)                  1.0977         0.350009   
      6. B(C   6,C   0)                  1.5118         0.399371   
      7. B(H   7,C   6)                  1.0918         0.357766   
      8. B(H   8,C   6)                  1.0942         0.354568   
      9. B(H   9,C   6)                  1.0928         0.356457   
     10. B(N  10,C   1)                  1.4544         0.441665   
     11. B(H  11,N  10)                  1.0178         0.420414   
     12. B(H  12,N  10)                  1.0140         0.426445   
     13. A(Cl  2,C   0,H   4)          106.0569         0.323527   
     14. A(C   1,C   0,H   4)          108.5680         0.325945   
     15. A(C   1,C   0,Cl  2)          108.8960         0.363547   
     16. A(H   4,C   0,C   6)          110.6216         0.328238   
     17. A(C   1,C   0,C   6)          113.1123         0.369061   
     18. A(Cl  2,C   0,C   6)          109.3299         0.366203   
     19. A(H   3,C   1,H   5)          108.7440         0.289177   
     20. A(C   0,C   1,H   5)          108.7720         0.324096   
     21. A(H   5,C   1,N  10)          109.9321         0.329842   
     22. A(H   3,C   1,N  10)          106.9720         0.330952   
     23. A(C   0,C   1,N  10)          115.9564         0.373157   
     24. A(C   0,C   1,H   3)          106.1989         0.325179   
     25. A(H   8,C   6,H   9)          109.6624         0.289671   
     26. A(H   7,C   6,H   9)          108.4942         0.290079   
     27. A(C   0,C   6,H   9)          107.5445         0.327353   
     28. A(H   7,C   6,H   8)          108.6076         0.289838   
     29. A(C   0,C   6,H   8)          111.0636         0.327067   
     30. A(C   0,C   6,H   7)          111.4233         0.327551   
     31. A(H  11,N  10,H  12)          107.7507         0.301163   
     32. A(C   1,N  10,H  12)          108.8716         0.337919   
     33. A(C   1,N  10,H  11)          105.7418         0.337118   
     34. D(N  10,C   1,C   0,Cl  2)     70.9964         0.011667   
     35. D(H   3,C   1,C   0,H   4)     74.6002         0.011667   
     36. D(H   5,C   1,C   0,Cl  2)    -53.4688         0.011667   
     37. D(N  10,C   1,C   0,H   4)    -44.0520         0.011667   
     38. D(H   3,C   1,C   0,Cl  2)   -170.3514         0.011667   
     39. D(H   3,C   1,C   0,C   6)    -48.5833         0.011667   
     40. D(H   5,C   1,C   0,H   4)   -168.5172         0.011667   
     41. D(N  10,C   1,C   0,C   6)   -167.2355         0.011667   
     42. D(H   5,C   1,C   0,C   6)     68.2993         0.011667   
     43. D(H   8,C   6,C   0,Cl  2)     66.8829         0.012656   
     44. D(H   8,C   6,C   0,C   1)    -54.6413         0.012656   
     45. D(H   7,C   6,C   0,H   4)     62.0912         0.012656   
     46. D(H   7,C   6,C   0,Cl  2)    -54.3438         0.012656   
     47. D(H   8,C   6,C   0,H   4)   -176.6821         0.012656   
     48. D(H   7,C   6,C   0,C   1)   -175.8680         0.012656   
     49. D(H   9,C   6,C   0,H   4)    -56.6872         0.012656   
     50. D(H   9,C   6,C   0,Cl  2)   -173.1222         0.012656   
     51. D(H   9,C   6,C   0,C   1)     65.3536         0.012656   
     52. D(H  12,N  10,C   1,H   5)     75.7546         0.016634   
     53. D(H  12,N  10,C   1,H   3)   -166.3373         0.016634   
     54. D(H  12,N  10,C   1,C   0)    -48.1103         0.016634   
     55. D(H  11,N  10,C   1,H   5)   -168.7079         0.016634   
     56. D(H  11,N  10,C   1,H   3)    -50.7998         0.016634   
     57. D(H  11,N  10,C   1,C   0)     67.4272         0.016634   
    -----------------------------------------------------------------

Number of atoms                         .... 13
Number of degrees of freedom            .... 57

         *************************************************************
         *                GEOMETRY OPTIMIZATION CYCLE   1            *
         *************************************************************
---------------------------------
CARTESIAN COORDINATES (ANGSTROEM)
---------------------------------
  C     -0.135963   -0.126667   -0.243549
  C     -0.093560   -0.221196    1.276328
  Cl     1.548105    0.197749   -0.862170
  H     -1.075369   -0.585596    1.586459
  H     -0.730786    0.741673   -0.520302
  H      0.664312   -0.961709    1.563203
  C     -0.678663   -1.375265   -0.900885
  H     -0.629431   -1.306463   -1.989372
  H     -0.122003   -2.261518   -0.581526
  H     -1.726524   -1.473491   -0.606808
  N      0.139465    1.027039    1.985521
  H     -0.690524    1.594264    1.826196
  H      0.926371    1.504168    1.559775

----------------------------
CARTESIAN COORDINATES (A.U.)
----------------------------
  NO LB      ZA    FRAG     MASS         X           Y           Z
   0 C     6.0000    0    12.011   -0.256933   -0.239366   -0.460241
   1 C     6.0000    0    12.011   -0.176803   -0.418000    2.411910
   2 Cl   17.0000    0    35.453    2.925494    0.373691   -1.629265
   3 H     1.0000    0     1.008   -2.032153   -1.106616    2.997973
   4 H     1.0000    0     1.008   -1.380985    1.401559   -0.983228
   5 H     1.0000    0     1.008    1.255368   -1.817367    2.954026
   6 C     6.0000    0    12.011   -1.282487   -2.598874   -1.702426
   7 H     1.0000    0     1.008   -1.189452   -2.468857   -3.759368
   8 H     1.0000    0     1.008   -0.230552   -4.273650   -1.098925
   9 H     1.0000    0     1.008   -3.262658   -2.784494   -1.146701
  10 N     7.0000    0    14.007    0.263551    1.940822    3.752091
  11 H     1.0000    0     1.008   -1.304901    3.012722    3.451010
  12 H     1.0000    0     1.008    1.750587    2.842466    2.947548

--------------------------------
INTERNAL COORDINATES (ANGSTROEM)
--------------------------------
 C      0   0   0     0.000000000000     0.00000000     0.00000000
 C      1   0   0     1.523404030905     0.00000000     0.00000000
 Cl     1   2   0     1.823190256479   108.89604988     0.00000000
 H      2   1   3     1.092207631196   106.19891649   189.64862823
 H      1   2   3     1.088311067636   108.56797106   244.95155867
 H      2   1   3     1.097737098388   108.77201529   306.53122922
 C      1   2   3     1.511823690944   113.11229190   121.76809941
 H      7   1   2     1.091769872362   111.42330846   184.13200943
 H      7   1   2     1.094214287281   111.06362941   305.35872613
 H      7   1   2     1.092768184166   107.54450330    65.35364103
 N      2   1   3     1.454422901738   115.95642722    70.99642755
 H     11   2   1     1.017845959058   105.74176198    67.42719789
 H     11   2   1     1.013968831865   108.87158495   311.88970981

---------------------------
INTERNAL COORDINATES (A.U.)
---------------------------
 C      0   0   0     0.000000000000     0.00000000     0.00000000
 C      1   0   0     2.878816409723     0.00000000     0.00000000
 Cl     1   2   0     3.445330274779   108.89604988     0.00000000
 H      2   1   3     2.063973304339   106.19891649   189.64862823
 H      1   2   3     2.056609866347   108.56797106   244.95155867
 H      2   1   3     2.074422482999   108.77201529   306.53122922
 C      1   2   3     2.856932738658   113.11229190   121.76809941
 H      7   1   2     2.063146060030   111.42330846   184.13200943
 H      7   1   2     2.067765334785   111.06362941   305.35872613
 H      7   1   2     2.065032595937   107.54450330    65.35364103
 N      2   1   3     2.748460967187   115.95642722    70.99642755
 H     11   2   1     1.923450109138   105.74176198    67.42719789
 H     11   2   1     1.916123400556   108.87158495   311.88970981

---------------------
BASIS SET INFORMATION
---------------------
There are 4 groups of distinct atoms

 Group   1 Type C   : 11s5p1d contracted to 4s3p1d pattern {6311/311/1}
 Group   2 Type Cl  : 13s10p1d contracted to 6s5p1d pattern {631111/52111/1}
 Group   3 Type H   : 5s contracted to 3s pattern {311}
 Group   4 Type N   : 11s5p1d contracted to 4s3p1d pattern {6311/311/1}

Atom   0C    basis set group =>   1
Atom   1C    basis set group =>   1
Atom   2Cl   basis set group =>   2
Atom   3H    basis set group =>   3
Atom   4H    basis set group =>   3
Atom   5H    basis set group =>   3
Atom   6C    basis set group =>   1
Atom   7H    basis set group =>   3
Atom   8H    basis set group =>   3
Atom   9H    basis set group =>   3
Atom  10N    basis set group =>   4
Atom  11H    basis set group =>   3
Atom  12H    basis set group =>   3
------------------------------------------------------------------------------
                           ORCA GTO INTEGRAL CALCULATION
------------------------------------------------------------------------------

                         BASIS SET STATISTICS AND STARTUP INFO

 # of primitive gaussian shells          ...  132
 # of primitive gaussian functions       ...  212
 # of contracted shells                  ...   68
 # of contracted basis functions         ...  122
 Highest angular momentum                ...    2
 Maximum contraction depth               ...    6
 Integral package used                   ... LIBINT
 Integral threshhold            Thresh   ...  3.000e-16
 Primitive cut-off              TCut     ...  3.000e-18


------------------------------ INTEGRAL EVALUATION ----------------------------


 * One electron integrals 
 Pre-screening matrix                    ... done
 Shell pair data                         ... done (   0.001 sec)

-------------------------------------------------------------------------------
                                 ORCA SCF
-------------------------------------------------------------------------------

------------
SCF SETTINGS
------------
Hamiltonian:
 Ab initio Hamiltonian  Method          .... Hartree-Fock(GTOs)


General Settings:
 Integral files         IntName         .... run
 Hartree-Fock type      HFTyp           .... RHF
 Total Charge           Charge          ....    0
 Multiplicity           Mult            ....    1
 Number of Electrons    NEL             ....   50
 Basis Dimension        Dim             ....  122
 Nuclear Repulsion      ENuc            ....    235.1609571867 Eh

Convergence Acceleration:
 DIIS                   CNVDIIS         .... on
   Start iteration      DIISMaxIt       ....    12
   Startup error        DIISStart       ....  0.200000
   # of expansion vecs  DIISMaxEq       ....     5
   Bias factor          DIISBfac        ....   1.050
   Max. coefficient     DIISMaxC        ....  10.000
 Newton-Raphson         CNVNR           .... off
 SOSCF                  CNVSOSCF        .... on
   Start iteration      SOSCFMaxIt      ....   150
   Startup grad/error   SOSCFStart      ....  0.003300
 Level Shifting         CNVShift        .... on
   Level shift para.    LevelShift      ....    0.2500
   Turn off err/grad.   ShiftErr        ....    0.0010
 Zerner damping         CNVZerner       .... off
 Static damping         CNVDamp         .... on
   Fraction old density DampFac         ....    0.7000
   Max. Damping (<1)    DampMax         ....    0.9800
   Min. Damping (>=0)   DampMin         ....    0.0000
   Turn off err/grad.   DampErr         ....    0.1000
 Fernandez-Rico         CNVRico         .... off

SCF Procedure:
 Maximum # iterations   MaxIter         ....   125
 SCF integral mode      SCFMode         .... Direct
   Integral package                     .... LIBINT
 Reset frequeny         DirectResetFreq ....    20
 Integral Threshold     Thresh          ....  3.000e-16 Eh
 Primitive CutOff       TCut            ....  3.000e-18 Eh

Convergence Tolerance:
 Convergence Check Mode ConvCheckMode   .... All-Criteria
 Convergence forced     ConvForced      .... 1
 Energy Change          TolE            ....  1.000e-14 Eh
 Max Density Change     TolMaxP         ....  1.000e-14
 RMS Density Change     TolRMSP         ....  1.000e-14
 Orbital Gradient       TolG            ....  1.000e-09
 Orbital Rotation angle TolX            ....  1.000e-09
 DIIS Error             TolErr          ....  1.000e-14


Diagonalization of the overlap matrix:
Smallest eigenvalue                        ... 2.468e-03
Time for diagonalization                   ...    0.003 sec
Threshold for overlap eigenvalues          ... 1.000e-08
Number of eigenvalues below threshold      ... 0
Time for construction of square roots      ...    0.001 sec
Total time needed                          ...    0.004 sec

-------------------
DFT GRID GENERATION
-------------------

General Integration Accuracy     IntAcc      ...  4.340
Radial Grid Type                 RadialGrid  ... Gauss-Chebyshev
Angular Grid (max. acc.)         AngularGrid ... Lebedev-110
Angular grid pruning method      GridPruning ... 3 (G Style)
Weight generation scheme         WeightScheme... Becke
Basis function cutoff            BFCut       ...    3.0000e-16
Integration weight cutoff        WCut        ...    1.0000e-14
Grids for H and He will be reduced by one unit

# of grid points (after initial pruning)     ...  14866 (   0.0 sec)
# of grid points (after weights+screening)   ...  13948 (   0.0 sec)
nearest neighbour list constructed           ...    0.0 sec
Grid point re-assignment to atoms done       ...    0.0 sec
Grid point division into batches done        ...    0.0 sec
Reduced shell lists constructed in    0.3 sec

Total number of grid points                  ...    13948
Total number of batches                      ...      225
Average number of points per batch           ...       61
Average number of grid points per atom       ...     1073
Average number of shells per batch           ...    53.70 (78.97%)
Average number of basis functions per batch  ...    98.36 (80.63%)
Average number of large shells per batch     ...    45.13 (84.04%)
Average number of large basis fcns per batch ...    83.05 (84.43%)
Maximum spatial batch extension              ...  21.71, 24.36, 19.49 au
Average spatial batch extension              ...   3.89,  4.02,  4.04 au

Time for grid setup =    0.291 sec

------------------------------
INITIAL GUESS: MODEL POTENTIAL
------------------------------
Loading Hartree-Fock densities                     ... done
Calculating cut-offs                               ... done
Setting up the integral package                    ... done
Initializing the effective Hamiltonian             ... done
Starting the Coulomb interaction                   ... done (   0.1 sec)
Reading the grid                                   ... done
Mapping shells                                     ... done
Starting the XC term evaluation                    ... done (   0.3 sec)
Transforming the Hamiltonian                       ... done (   0.0 sec)
Diagonalizing the Hamiltonian                      ... done (   0.0 sec)
Back transforming the eigenvectors                 ... done (   0.0 sec)
Now organizing SCF variables                       ... done
                      ------------------
                      INITIAL GUESS DONE (   0.8 sec)
                      ------------------
--------------
SCF ITERATIONS
--------------
ITER       Energy         Delta-E        Max-DP      RMS-DP      [F,P]     Damp
               ***  Starting incremental Fock matrix formation  ***
  0   -631.9722941840   0.000000000000 0.05994995  0.00167754  0.6497800 0.7000
  1   -632.0694947389  -0.097200554884 0.04394803  0.00126795  0.4563594 0.7000
  2   -632.1274951064  -0.058000367477 0.02371067  0.00079038  0.3204777 0.7000
  3   -632.1640589072  -0.036563800882 0.01154577  0.00048574  0.2251441 0.7000
                               ***Turning on DIIS***
  4   -632.1886679731  -0.024609065814 0.00854991  0.00031671  0.1582223 0.7000
  5   -632.4224550013  -0.233787028223 0.00665470  0.00023800  0.1112190 0.7000
  6   -632.3900700157   0.032384985578 0.01668888  0.00063932  0.0780130 0.0000
                      *** Initiating the SOSCF procedure ***
                           *** Shutting down DIIS ***
                      *** Re-Reading the Fockian *** 
                      *** Removing any level shift *** 
ITER      Energy       Delta-E        Grad      Rot      Max-DP    RMS-DP
  7   -632.25423468   0.1358353315  0.000951  0.000951  0.001688  0.000085
               *** Restarting incremental Fock matrix formation ***
  8   -632.24624333   0.0079913531  0.000341  0.000430  0.001143  0.000050
  9   -632.24625258  -0.0000092464  0.000135  0.000284  0.000605  0.000030
 10   -632.24625419  -0.0000016115  0.000045  0.000034  0.000138  0.000004
 11   -632.24625424  -0.0000000483  0.000019  0.000018  0.000032  0.000001
 12   -632.24625425  -0.0000000099  0.000006  0.000015  0.000016  0.000001
 13   -632.24625425  -0.0000000010  0.000001  0.000002  0.000003  0.000000
 14   -632.24625425  -0.0000000000  0.000000  0.000000  0.000001  0.000000
 15   -632.24625425  -0.0000000000  0.000000  0.000000  0.000000  0.000000
 16   -632.24625425   0.0000000000  0.000000  0.000000  0.000000  0.000000
                          ***Energy convergence achieved***
 17   -632.24625425   0.0000000000  0.000000  0.000000  0.000000  0.000000
 18   -632.24625425  -0.0000000000  0.000000  0.000000  0.000000  0.000000
 19   -632.24625425   0.0000000000  0.000000  0.000000  0.000000  0.000000
                           ***RMSP convergence achieved***
                           ***MAXP convergence achieved***
                       ***Gradient convergence achieved***
                    ***Orbital Rotation convergence achieved***
 20   -632.24625425  -0.0000000000  0.000000  0.000000  0.000000  0.000000
                          ***Energy convergence achieved***
              ***Rediagonalizing the Fockian in SOSCF/NRSCF***

               *****************************************************
               *                     SUCCESS                       *
               *           SCF CONVERGED AFTER  21 CYCLES          *
               *****************************************************


----------------
TOTAL SCF ENERGY
----------------

Total Energy       :         -632.24625425 Eh          -17204.29523 eV

Components:
Nuclear Repulsion  :          235.16095719 Eh            6399.05497 eV
Electronic Energy  :         -867.40721143 Eh          -23603.35019 eV
One Electron Energy:        -1335.24031884 Eh          -36333.73625 eV
Two Electron Energy:          467.83310741 Eh           12730.38605 eV

Virial components:
Potential Energy   :        -1264.49210153 Eh          -34408.57938 eV
Kinetic Energy     :          632.24584728 Eh           17204.28415 eV
Virial Ratio       :            2.00000064


---------------
SCF CONVERGENCE
---------------

  Last Energy change         ...    0.0000e+00  Tolerance :   1.0000e-14
  Last MAX-Density change    ...    0.0000e+00  Tolerance :   1.0000e-14
  Last RMS-Density change    ...    0.0000e+00  Tolerance :   1.0000e-14
  Last Orbital Gradient      ...    9.9874e-10  Tolerance :   1.0000e-09
  Last Orbital Rotation      ...    0.0000e+00  Tolerance :   1.0000e-09

             **** THE GBW FILE WAS UPDATED (run.gbw) ****
             **** DENSITY FILE WAS UPDATED (run.scfp.tmp) ****
             **** ENERGY FILE WAS UPDATED (run.en.tmp) ****
----------------
ORBITAL ENERGIES
----------------

  NO   OCC          E(Eh)            E(eV) 
   0   2.0000    -104.820062     -2852.2989 
   1   2.0000     -15.544215      -422.9796 
   2   2.0000     -11.303139      -307.5740 
   3   2.0000     -11.264989      -306.5359 
   4   2.0000     -11.238656      -305.8194 
   5   2.0000     -10.546844      -286.9942 
   6   2.0000      -8.014896      -218.0964 
   7   2.0000      -8.012316      -218.0262 
   8   2.0000      -8.012240      -218.0241 
   9   2.0000      -1.204619       -32.7794 
  10   2.0000      -1.131798       -30.7978 
  11   2.0000      -1.018121       -27.7045 
  12   2.0000      -0.920978       -25.0611 
  13   2.0000      -0.807969       -21.9860 
  14   2.0000      -0.694534       -18.8992 
  15   2.0000      -0.642110       -17.4727 
  16   2.0000      -0.622723       -16.9451 
  17   2.0000      -0.593135       -16.1400 
  18   2.0000      -0.549504       -14.9528 
  19   2.0000      -0.544587       -14.8190 
  20   2.0000      -0.527155       -14.3446 
  21   2.0000      -0.493480       -13.4283 
  22   2.0000      -0.442064       -12.0292 
  23   2.0000      -0.435987       -11.8638 
  24   2.0000      -0.400932       -10.9099 
  25   0.0000       0.142539         3.8787 
  26   0.0000       0.165600         4.5062 
  27   0.0000       0.171047         4.6544 
  28   0.0000       0.190238         5.1766 
  29   0.0000       0.202549         5.5116 
  30   0.0000       0.229884         6.2555 
  31   0.0000       0.234474         6.3804 
  32   0.0000       0.239334         6.5126 
  33   0.0000       0.271850         7.3974 
  34   0.0000       0.344954         9.3867 
  35   0.0000       0.357355         9.7241 
  36   0.0000       0.370408        10.0793 
  37   0.0000       0.428989        11.6734 
  38   0.0000       0.446203        12.1418 
  39   0.0000       0.467523        12.7219 
  40   0.0000       0.486693        13.2436 
  41   0.0000       0.510997        13.9049 
  42   0.0000       0.520294        14.1579 
  43   0.0000       0.536993        14.6123 
  44   0.0000       0.558900        15.2084 
  45   0.0000       0.566573        15.4172 
  46   0.0000       0.570768        15.5314 
  47   0.0000       0.679666        18.4947 
  48   0.0000       0.750254        20.4155 
  49   0.0000       0.755551        20.5596 
  50   0.0000       0.779412        21.2089 
  51   0.0000       0.780160        21.2292 
  52   0.0000       0.793494        21.5921 
  53   0.0000       0.803408        21.8618 
  54   0.0000       0.806794        21.9540 
  55   0.0000       0.817158        22.2360 
  56   0.0000       0.834756        22.7149 
  57   0.0000       0.916017        24.9261 
  58   0.0000       0.923955        25.1421 
  59   0.0000       0.993029        27.0217 
  60   0.0000       1.016082        27.6490 
  61   0.0000       1.073288        29.2056 
  62   0.0000       1.082324        29.4515 
  63   0.0000       1.112726        30.2788 
  64   0.0000       1.195932        32.5430 
  65   0.0000       1.207268        32.8514 
  66   0.0000       1.272925        34.6381 
  67   0.0000       1.293984        35.2111 
  68   0.0000       1.341802        36.5123 
  69   0.0000       1.416550        38.5463 
  70   0.0000       1.486852        40.4593 
  71   0.0000       1.549697        42.1694 
  72   0.0000       1.631247        44.3885 
  73   0.0000       1.724160        46.9168 
  74   0.0000       1.756058        47.7848 
  75   0.0000       1.766233        48.0616 
  76   0.0000       1.820587        49.5407 
  77   0.0000       1.849535        50.3284 
  78   0.0000       1.876354        51.0582 
  79   0.0000       1.928065        52.4653 
  80   0.0000       2.036271        55.4098 
  81   0.0000       2.113552        57.5127 
  82   0.0000       2.150398        58.5153 
  83   0.0000       2.213993        60.2458 
  84   0.0000       2.246616        61.1335 
  85   0.0000       2.310037        62.8593 
  86   0.0000       2.357710        64.1566 
  87   0.0000       2.481869        67.5351 
  88   0.0000       2.539513        69.1037 
  89   0.0000       2.544738        69.2459 
  90   0.0000       2.592295        70.5399 
  91   0.0000       2.655796        72.2679 
  92   0.0000       2.680828        72.9490 
  93   0.0000       2.749727        74.8239 
  94   0.0000       2.772432        75.4417 
  95   0.0000       2.818752        76.7022 
  96   0.0000       2.821150        76.7674 
  97   0.0000       2.898144        78.8625 
  98   0.0000       2.939575        79.9899 
  99   0.0000       3.095668        84.2374 
 100   0.0000       3.246828        88.3507 
 101   0.0000       3.294099        89.6370 
 102   0.0000       3.394381        92.3658 
 103   0.0000       3.478497        94.6547 
 104   0.0000       3.532393        96.1213 
 105   0.0000       3.583593        97.5145 
 106   0.0000       3.663670        99.6935 
 107   0.0000       3.707395       100.8834 
 108   0.0000       4.009289       109.0983 
 109   0.0000       4.313423       117.3742 
 110   0.0000       4.378981       119.1581 
 111   0.0000       4.536045       123.4320 
 112   0.0000       5.019570       136.5894 
 113   0.0000      10.285738       279.8891 
 114   0.0000      24.523072       667.3067 
 115   0.0000      24.765471       673.9027 
 116   0.0000      24.837541       675.8638 
 117   0.0000      26.370914       717.5891 
 118   0.0000      26.470998       720.3125 
 119   0.0000      26.934183       732.9164 
 120   0.0000      36.829271      1002.1754 
 121   0.0000     219.113112      5962.3709 

                    ********************************
                    * MULLIKEN POPULATION ANALYSIS *
                    ********************************

-----------------------
MULLIKEN ATOMIC CHARGES
-----------------------
   0 C :   -0.289210
   1 C :   -0.194996
   2 Cl:   -0.163666
   3 H :    0.210639
   4 H :    0.238550
   5 H :    0.231293
   6 C :   -0.579735
   7 H :    0.240103
   8 H :    0.225733
   9 H :    0.212197
  10 N :   -0.794134
  11 H :    0.317111
  12 H :    0.346115
Sum of atomic charges:   -0.0000000

--------------------------------
MULLIKEN REDUCED ORBITAL CHARGES
--------------------------------
  0 C s       :     3.344833  s :     3.344833
      pz      :     0.960590  p :     2.845457
      px      :     0.794550
      py      :     1.090318
      dz2     :     0.025089  d :     0.098920
      dxz     :     0.016579
      dyz     :     0.014425
      dx2y2   :     0.018872
      dxy     :     0.023954
  1 C s       :     3.234761  s :     3.234761
      pz      :     0.818350  p :     2.856971
      px      :     1.145131
      py      :     0.893490
      dz2     :     0.032227  d :     0.103263
      dxz     :     0.008856
      dyz     :     0.021380
      dx2y2   :     0.017015
      dxy     :     0.023786
  2 Cls       :     5.967152  s :     5.967152
      pz      :     3.887847  p :    11.172170
      px      :     3.342071
      py      :     3.942252
      dz2     :     0.003093  d :     0.024344
      dxz     :     0.007136
      dyz     :     0.000633
      dx2y2   :     0.009626
      dxy     :     0.003856
  3 H s       :     0.789361  s :     0.789361
  4 H s       :     0.761450  s :     0.761450
  5 H s       :     0.768707  s :     0.768707
  6 C s       :     3.348051  s :     3.348051
      pz      :     1.108509  p :     3.160954
      px      :     1.074444
      py      :     0.978001
      dz2     :     0.023510  d :     0.070730
      dxz     :     0.006317
      dyz     :     0.009662
      dx2y2   :     0.017522
      dxy     :     0.013718
  7 H s       :     0.759897  s :     0.759897
  8 H s       :     0.774267  s :     0.774267
  9 H s       :     0.787803  s :     0.787803
 10 N s       :     3.697422  s :     3.697422
      pz      :     1.764781  p :     4.059595
      px      :     1.183302
      py      :     1.111511
      dz2     :     0.003382  d :     0.037117
      dxz     :     0.007223
      dyz     :     0.009510
      dx2y2   :     0.003838
      dxy     :     0.013164
 11 H s       :     0.682889  s :     0.682889
 12 H s       :     0.653885  s :     0.653885


                     *******************************
                     * LOEWDIN POPULATION ANALYSIS *
                     *******************************

----------------------
LOEWDIN ATOMIC CHARGES
----------------------
   0 C :   -0.200008
   1 C :   -0.170720
   2 Cl:   -0.003359
   3 H :    0.099624
   4 H :    0.101792
   5 H :    0.102920
   6 C :   -0.278885
   7 H :    0.112027
   8 H :    0.110576
   9 H :    0.106358
  10 N :   -0.362342
  11 H :    0.188559
  12 H :    0.193459

-------------------------------
LOEWDIN REDUCED ORBITAL CHARGES
-------------------------------
  0 C s       :     2.891040  s :     2.891040
      pz      :     1.090352  p :     3.118788
      px      :     0.917224
      py      :     1.111211
      dz2     :     0.049655  d :     0.190181
      dxz     :     0.033806
      dyz     :     0.028423
      dx2y2   :     0.036900
      dxy     :     0.041397
  1 C s       :     2.851774  s :     2.851774
      pz      :     1.018956  p :     3.125920
      px      :     1.097273
      py      :     1.009691
      dz2     :     0.064702  d :     0.193026
      dxz     :     0.016353
      dyz     :     0.045595
      dx2y2   :     0.029729
      dxy     :     0.036646
  2 Cls       :     5.747418  s :     5.747418
      pz      :     3.876255  p :    11.229437
      px      :     3.419507
      py      :     3.933675
      dz2     :     0.003445  d :     0.026503
      dxz     :     0.007817
      dyz     :     0.000720
      dx2y2   :     0.010219
      dxy     :     0.004302
  3 H s       :     0.900376  s :     0.900376
  4 H s       :     0.898208  s :     0.898208
  5 H s       :     0.897080  s :     0.897080
  6 C s       :     2.891946  s :     2.891946
      pz      :     1.101776  p :     3.275945
      px      :     1.096766
      py      :     1.077403
      dz2     :     0.033730  d :     0.110993
      dxz     :     0.008828
      dyz     :     0.017946
      dx2y2   :     0.027978
      dxy     :     0.022510
  7 H s       :     0.887973  s :     0.887973
  8 H s       :     0.889424  s :     0.889424
  9 H s       :     0.893642  s :     0.893642
 10 N s       :     3.213300  s :     3.213300
      pz      :     1.718741  p :     4.097123
      px      :     1.194826
      py      :     1.183556
      dz2     :     0.004453  d :     0.051918
      dxz     :     0.007487
      dyz     :     0.013876
      dx2y2   :     0.007162
      dxy     :     0.018940
 11 H s       :     0.811441  s :     0.811441
 12 H s       :     0.806541  s :     0.806541


                      *****************************
                      * MAYER POPULATION ANALYSIS *
                      *****************************

  NA   - Mulliken gross atomic population
  ZA   - Total nuclear charge
  QA   - Mulliken gross atomic charge
  VA   - Mayer's total valence
  BVA  - Mayer's bonded valence
  FA   - Mayer's free valence

  ATOM       NA         ZA         QA         VA         BVA        FA
  0 C      6.2892     6.0000    -0.2892     3.6467     3.6467    -0.0000
  1 C      6.1950     6.0000    -0.1950     3.6006     3.6006     0.0000
  2 Cl    17.1637    17.0000    -0.1637     0.9170     0.9170    -0.0000
  3 H      0.7894     1.0000     0.2106     0.9129     0.9129    -0.0000
  4 H      0.7615     1.0000     0.2385     0.8863     0.8863     0.0000
  5 H      0.7687     1.0000     0.2313     0.9027     0.9027    -0.0000
  6 C      6.5797     6.0000    -0.5797     3.6381     3.6381     0.0000
  7 H      0.7599     1.0000     0.2401     0.8989     0.8989    -0.0000
  8 H      0.7743     1.0000     0.2257     0.9087     0.9087     0.0000
  9 H      0.7878     1.0000     0.2122     0.9115     0.9115    -0.0000
 10 N      7.7941     7.0000    -0.7941     2.6252     2.6252    -0.0000
 11 H      0.6829     1.0000     0.3171     0.8626     0.8626    -0.0000
 12 H      0.6539     1.0000     0.3461     0.8436     0.8436    -0.0000

  Mayer bond orders larger than 0.1
B(  0-C ,  1-C ) :   0.9029 B(  0-C ,  2-Cl) :   0.9942 B(  0-C ,  4-H ) :   0.9184 
B(  0-C ,  6-C ) :   0.9282 B(  1-C ,  3-H ) :   0.9431 B(  1-C ,  5-H ) :   0.9311 
B(  1-C , 10-N ) :   0.9337 B(  6-C ,  7-H ) :   0.9408 B(  6-C ,  8-H ) :   0.9378 
B(  6-C ,  9-H ) :   0.9344 B( 10-N , 11-H ) :   0.8643 B( 10-N , 12-H ) :   0.8480 


-------
TIMINGS
-------

Total SCF time: 0 days 0 hours 1 min 0 sec 

Total time                  ....      60.758 sec
Sum of individual times     ....      60.729 sec  (100.0%)

Fock matrix formation       ....      59.833 sec  ( 98.5%)
Diagonalization             ....       0.030 sec  (  0.0%)
Density matrix formation    ....       0.004 sec  (  0.0%)
Population analysis         ....       0.005 sec  (  0.0%)
Initial guess               ....       0.533 sec  (  0.9%)
Orbital Transformation      ....       0.000 sec  (  0.0%)
Orbital Orthonormalization  ....       0.000 sec  (  0.0%)
DIIS solution               ....       0.007 sec  (  0.0%)
SOSCF solution              ....       0.026 sec  (  0.0%)

------------------------------------------------------------------------------
                                ORCA  MP2 
------------------------------------------------------------------------------

MP2 will be done in the AO integral direct mode
The Q1-step will be done using symmetric double matrices
Dimension of the basis                    ...  122
Memory devoted for MP2                    ... 5000 MB   
Memory needed for all in one shot         ...  176 MB
Number of MOs that can be treated together...  714      
MP2 density construction                  ... relaxed
The MP2 gradient is requested => amplitudes will be stored on disk
Total number of MOs              ...   25
Number of MOs treated per batch  ...   25 
Number of batches necessary      ...    1 
OPERATORS   0/  0 PASS   0
-----------------------------------------------
 MP2 CORRELATION ENERGY   :     -0.855352572 Eh
-----------------------------------------------


---------------------
MP2 DENSITY FORMATION
---------------------

Completing the external part of the density      ... done
Storing the unrelaxed density                    ... done

Calculating G(D)                                 ... done
Completing the Lagrangian                        ... done
Solving the Z-vector equations                   ... 

------------------------------------------------------------------------------
                           ORCA CP-SCF CALCULATION
------------------------------------------------------------------------------

Input orbitals are from        ... run.gbw
Input Perturbation             ... run.pin.tmp
Wavefunction output            ... run.pout.tmp
Perturbation mode              ... Real perturbation
Solver                         ... POPLE
Max. number of iterations      ... 128
Convergence tolerance          ... 1.000e-11
Integral handling              ... Direct
Number of perturbations        ... 1
Number of operators            ... 1
Orbital ranges used for CP-SCF:
 Operator 0:  Orbitals   0... 24  to  25...121
Variables per vector in CP-SCF ... 2425
Number of vectors sought       ... 1
     CP-SCF ITERATION   0: 
     CP-SCF ITERATION   1:      0.000313210625
     CP-SCF ITERATION   2:      0.000032516873
     CP-SCF ITERATION   3:      0.000003087599
     CP-SCF ITERATION   4:      0.000000321645
     CP-SCF ITERATION   5:      0.000000026895
     CP-SCF ITERATION   6:      0.000000002149
     CP-SCF ITERATION   7:      0.000000000103
     CP-SCF ITERATION   8:      0.000000000008
                                                 ... done
Finalizing the relaxed density                   ... done
Transforming P to the AO basis                   ... done
Storing the relaxed density                      ... done

------------------------------------
ENERGY WEIGHTED DENSITY FINALIZATION
------------------------------------

Gathering the parts of the W-matrix              ...                                                      done
Forming the Z-density                            ... done
Transforming Z to the AO basis                   ... done
Calculating G(Z)                                 ... done
Finalizing the W-matrix                          ...                                                      done
Transforming W to the AO basis and storing       ... done

                *********************************************
                * UNRELAXED MP2 DENSITY POPULATION ANALYSIS *
                *********************************************

------------------------------------------------------------------------------
                           ORCA POPULATION ANALYSIS
------------------------------------------------------------------------------
Input electron density              ... run.pmp2ur
BaseName (.gbw .S,...)              ... run

                    ********************************
                    * MULLIKEN POPULATION ANALYSIS *
                    ********************************

-----------------------
MULLIKEN ATOMIC CHARGES
-----------------------
   0 C :   -0.301889
   1 C :   -0.205709
   2 Cl:   -0.151886
   3 H :    0.213039
   4 H :    0.240339
   5 H :    0.233564
   6 C :   -0.587351
   7 H :    0.242407
   8 H :    0.228115
   9 H :    0.214693
  10 N :   -0.787781
  11 H :    0.317002
  12 H :    0.345456
Sum of atomic charges:   -0.0000000

--------------------------------
MULLIKEN REDUCED ORBITAL CHARGES
--------------------------------
  0 C s       :     3.339788  s :     3.339788
      pz      :     0.957873  p :     2.843649
      px      :     0.798288
      py      :     1.087488
      dz2     :     0.028591  d :     0.118452
      dxz     :     0.020764
      dyz     :     0.018824
      dx2y2   :     0.022624
      dxy     :     0.027649
  1 C s       :     3.232011  s :     3.232011
      pz      :     0.816995  p :     2.851852
      px      :     1.142175
      py      :     0.892682
      dz2     :     0.035236  d :     0.121846
      dxz     :     0.013276
      dyz     :     0.025173
      dx2y2   :     0.020698
      dxy     :     0.027462
  2 Cls       :     5.959480  s :     5.959480
      pz      :     3.867721  p :    11.117071
      px      :     3.327564
      py      :     3.921786
      dz2     :     0.013478  d :     0.075334
      dxz     :     0.017134
      dyz     :     0.011206
      dx2y2   :     0.019428
      dxy     :     0.014088
  3 H s       :     0.786961  s :     0.786961
  4 H s       :     0.759661  s :     0.759661
  5 H s       :     0.766436  s :     0.766436
  6 C s       :     3.344906  s :     3.344906
      pz      :     1.104991  p :     3.151819
      px      :     1.071909
      py      :     0.974919
      dz2     :     0.027264  d :     0.090626
      dxz     :     0.010609
      dyz     :     0.013723
      dx2y2   :     0.021360
      dxy     :     0.017671
  7 H s       :     0.757593  s :     0.757593
  8 H s       :     0.771885  s :     0.771885
  9 H s       :     0.785307  s :     0.785307
 10 N s       :     3.692813  s :     3.692813
      pz      :     1.751939  p :     4.038323
      px      :     1.179536
      py      :     1.106848
      dz2     :     0.007691  d :     0.056645
      dxz     :     0.011267
      dyz     :     0.013362
      dx2y2   :     0.007557
      dxy     :     0.016769
 11 H s       :     0.682998  s :     0.682998
 12 H s       :     0.654544  s :     0.654544


                     *******************************
                     * LOEWDIN POPULATION ANALYSIS *
                     *******************************

----------------------
LOEWDIN ATOMIC CHARGES
----------------------
   0 C :   -0.214365
   1 C :   -0.182799
   2 Cl:    0.007058
   3 H :    0.103699
   4 H :    0.105656
   5 H :    0.106888
   6 C :   -0.290620
   7 H :    0.115855
   8 H :    0.114429
   9 H :    0.110291
  10 N :   -0.360966
  11 H :    0.190145
  12 H :    0.194728

-------------------------------
LOEWDIN REDUCED ORBITAL CHARGES
-------------------------------
  0 C s       :     2.891569  s :     2.891569
      pz      :     1.084383  p :     3.110226
      px      :     0.919370
      py      :     1.106473
      dz2     :     0.054313  d :     0.212570
      dxz     :     0.038087
      dyz     :     0.033259
      dx2y2   :     0.041108
      dxy     :     0.045803
  1 C s       :     2.852947  s :     2.852947
      pz      :     1.014083  p :     3.115690
      px      :     1.094387
      py      :     1.007220
      dz2     :     0.068509  d :     0.214162
      dxz     :     0.021051
      dyz     :     0.049697
      dx2y2   :     0.034116
      dxy     :     0.040789
  2 Cls       :     5.740486  s :     5.740486
      pz      :     3.856095  p :    11.173105
      px      :     3.403796
      py      :     3.913213
      dz2     :     0.014132  d :     0.079352
      dxz     :     0.018298
      dyz     :     0.011452
      dx2y2   :     0.020564
      dxy     :     0.014906
  3 H s       :     0.896301  s :     0.896301
  4 H s       :     0.894344  s :     0.894344
  5 H s       :     0.893112  s :     0.893112
  6 C s       :     2.892681  s :     2.892681
      pz      :     1.098081  p :     3.264076
      px      :     1.093537
      py      :     1.072459
      dz2     :     0.038083  d :     0.133863
      dxz     :     0.013599
      dyz     :     0.022665
      dx2y2   :     0.032421
      dxy     :     0.027094
  7 H s       :     0.884145  s :     0.884145
  8 H s       :     0.885571  s :     0.885571
  9 H s       :     0.889709  s :     0.889709
 10 N s       :     3.211747  s :     3.211747
      pz      :     1.706379  p :     4.075832
      px      :     1.191576
      py      :     1.177877
      dz2     :     0.008997  d :     0.073387
      dxz     :     0.011843
      dyz     :     0.018355
      dx2y2   :     0.011329
      dxy     :     0.022863
 11 H s       :     0.809855  s :     0.809855
 12 H s       :     0.805272  s :     0.805272


                      *****************************
                      * MAYER POPULATION ANALYSIS *
                      *****************************

  NA   - Mulliken gross atomic population
  ZA   - Total nuclear charge
  QA   - Mulliken gross atomic charge
  VA   - Mayer's total valence
  BVA  - Mayer's bonded valence
  FA   - Mayer's free valence

  ATOM       NA         ZA         QA         VA         BVA        FA
  0 C      6.3019     6.0000    -0.3019     3.7605     3.4322     0.3283
  1 C      6.2057     6.0000    -0.2057     3.7029     3.4195     0.2835
  2 Cl    17.1519    17.0000    -0.1519     1.2552     0.8437     0.4114
  3 H      0.7870     1.0000     0.2130     0.9144     0.8752     0.0391
  4 H      0.7597     1.0000     0.2403     0.8882     0.8481     0.0401
  5 H      0.7664     1.0000     0.2336     0.9040     0.8660     0.0381
  6 C      6.5874     6.0000    -0.5874     3.7556     3.4792     0.2763
  7 H      0.7576     1.0000     0.2424     0.8999     0.8631     0.0368
  8 H      0.7719     1.0000     0.2281     0.9100     0.8726     0.0373
  9 H      0.7853     1.0000     0.2147     0.9129     0.8744     0.0384
 10 N      7.7878     7.0000    -0.7878     2.8282     2.4952     0.3330
 11 H      0.6830     1.0000     0.3170     0.8645     0.8245     0.0400
 12 H      0.6545     1.0000     0.3455     0.8459     0.8071     0.0388

  Mayer bond orders larger than 0.1
B(  0-C ,  1-C ) :   0.8509 B(  0-C ,  2-Cl) :   0.9224 B(  0-C ,  4-H ) :   0.8814 
B(  0-C ,  6-C ) :   0.8760 B(  1-C ,  3-H ) :   0.9065 B(  1-C ,  5-H ) :   0.8951 
B(  1-C , 10-N ) :   0.8782 B(  6-C ,  7-H ) :   0.9053 B(  6-C ,  8-H ) :   0.9022 
B(  6-C ,  9-H ) :   0.8985 B( 10-N , 11-H ) :   0.8272 B( 10-N , 12-H ) :   0.8125 



                *******************************************
                * RELAXED MP2 DENSITY POPULATION ANALYSIS *
                *******************************************

------------------------------------------------------------------------------
                           ORCA POPULATION ANALYSIS
------------------------------------------------------------------------------
Input electron density              ... run.pmp2re
BaseName (.gbw .S,...)              ... run

                    ********************************
                    * MULLIKEN POPULATION ANALYSIS *
                    ********************************

-----------------------
MULLIKEN ATOMIC CHARGES
-----------------------
   0 C :   -0.334424
   1 C :   -0.271475
   2 Cl:   -0.102333
   3 H :    0.223458
   4 H :    0.242432
   5 H :    0.241148
   6 C :   -0.627822
   7 H :    0.249708
   8 H :    0.238139
   9 H :    0.225741
  10 N :   -0.736689
  11 H :    0.314892
  12 H :    0.337226
Sum of atomic charges:   -0.0000000

--------------------------------
MULLIKEN REDUCED ORBITAL CHARGES
--------------------------------
  0 C s       :     3.324913  s :     3.324913
      pz      :     0.969996  p :     2.900682
      px      :     0.831051
      py      :     1.099635
      dz2     :     0.025275  d :     0.108829
      dxz     :     0.020047
      dyz     :     0.017926
      dx2y2   :     0.020370
      dxy     :     0.025211
  1 C s       :     3.235727  s :     3.235727
      pz      :     0.844831  p :     2.926103
      px      :     1.164957
      py      :     0.916316
      dz2     :     0.030880  d :     0.109645
      dxz     :     0.013022
      dyz     :     0.023546
      dx2y2   :     0.017889
      dxy     :     0.024308
  2 Cls       :     5.958918  s :     5.958918
      pz      :     3.854616  p :    11.070650
      px      :     3.304005
      py      :     3.912029
      dz2     :     0.013259  d :     0.072765
      dxz     :     0.016388
      dyz     :     0.011247
      dx2y2   :     0.017643
      dxy     :     0.014228
  3 H s       :     0.776542  s :     0.776542
  4 H s       :     0.757568  s :     0.757568
  5 H s       :     0.758852  s :     0.758852
  6 C s       :     3.336062  s :     3.336062
      pz      :     1.121052  p :     3.212902
      px      :     1.095399
      py      :     0.996450
      dz2     :     0.023421  d :     0.078858
      dxz     :     0.009442
      dyz     :     0.012105
      dx2y2   :     0.018549
      dxy     :     0.015341
  7 H s       :     0.750292  s :     0.750292
  8 H s       :     0.761861  s :     0.761861
  9 H s       :     0.774259  s :     0.774259
 10 N s       :     3.666999  s :     3.666999
      pz      :     1.736490  p :     4.016894
      px      :     1.176910
      py      :     1.103495
      dz2     :     0.007812  d :     0.052796
      dxz     :     0.010652
      dyz     :     0.012368
      dx2y2   :     0.006729
      dxy     :     0.015235
 11 H s       :     0.685108  s :     0.685108
 12 H s       :     0.662774  s :     0.662774


                     *******************************
                     * LOEWDIN POPULATION ANALYSIS *
                     *******************************

----------------------
LOEWDIN ATOMIC CHARGES
----------------------
   0 C :   -0.242102
   1 C :   -0.214408
   2 Cl:    0.037435
   3 H :    0.114064
   4 H :    0.110187
   5 H :    0.115045
   6 C :   -0.324655
   7 H :    0.124365
   8 H :    0.123588
   9 H :    0.121004
  10 N :   -0.356159
  11 H :    0.194828
  12 H :    0.196807

-------------------------------
LOEWDIN REDUCED ORBITAL CHARGES
-------------------------------
  0 C s       :     2.896235  s :     2.896235
      pz      :     1.086020  p :     3.140341
      px      :     0.943991
      py      :     1.110330
      dz2     :     0.052040  d :     0.205526
      dxz     :     0.037504
      dyz     :     0.032947
      dx2y2   :     0.038927
      dxy     :     0.044108
  1 C s       :     2.858267  s :     2.858267
      pz      :     1.025999  p :     3.152653
      px      :     1.108694
      py      :     1.017960
      dz2     :     0.065002  d :     0.203489
      dxz     :     0.021031
      dyz     :     0.048278
      dx2y2   :     0.031347
      dxy     :     0.037831
  2 Cls       :     5.746819  s :     5.746819
      pz      :     3.848095  p :    11.138441
      px      :     3.381790
      py      :     3.908556
      dz2     :     0.013943  d :     0.077305
      dxz     :     0.017723
      dyz     :     0.011503
      dx2y2   :     0.019049
      dxy     :     0.015087
  3 H s       :     0.885936  s :     0.885936
  4 H s       :     0.889813  s :     0.889813
  5 H s       :     0.884955  s :     0.884955
  6 C s       :     2.896308  s :     2.896308
      pz      :     1.110736  p :     3.305851
      px      :     1.109252
      py      :     1.085863
      dz2     :     0.034447  d :     0.122496
      dxz     :     0.012524
      dyz     :     0.021145
      dx2y2   :     0.029591
      dxy     :     0.024789
  7 H s       :     0.875635  s :     0.875635
  8 H s       :     0.876412  s :     0.876412
  9 H s       :     0.878996  s :     0.878996
 10 N s       :     3.210783  s :     3.210783
      pz      :     1.696187  p :     4.075208
      px      :     1.198180
      py      :     1.180840
      dz2     :     0.009105  d :     0.070168
      dxz     :     0.011396
      dyz     :     0.017512
      dx2y2   :     0.010602
      dxy     :     0.021552
 11 H s       :     0.805172  s :     0.805172
 12 H s       :     0.803193  s :     0.803193


                      *****************************
                      * MAYER POPULATION ANALYSIS *
                      *****************************

  NA   - Mulliken gross atomic population
  ZA   - Total nuclear charge
  QA   - Mulliken gross atomic charge
  VA   - Mayer's total valence
  BVA  - Mayer's bonded valence
  FA   - Mayer's free valence

  ATOM       NA         ZA         QA         VA         BVA        FA
  0 C      6.3344     6.0000    -0.3344     3.8336     3.5116     0.3220
  1 C      6.2715     6.0000    -0.2715     3.7590     3.4788     0.2802
  2 Cl    17.1023    17.0000    -0.1023     1.3126     0.9065     0.4061
  3 H      0.7765     1.0000     0.2235     0.9099     0.8715     0.0383
  4 H      0.7576     1.0000     0.2424     0.8914     0.8523     0.0390
  5 H      0.7589     1.0000     0.2411     0.9019     0.8646     0.0372
  6 C      6.6278     6.0000    -0.6278     3.7646     3.4915     0.2731
  7 H      0.7503     1.0000     0.2497     0.8968     0.8606     0.0362
  8 H      0.7619     1.0000     0.2381     0.9066     0.8700     0.0366
  9 H      0.7743     1.0000     0.2257     0.9087     0.8711     0.0376
 10 N      7.7367     7.0000    -0.7367     2.8994     2.5715     0.3279
 11 H      0.6851     1.0000     0.3149     0.8642     0.8244     0.0397
 12 H      0.6628     1.0000     0.3372     0.8524     0.8139     0.0385

  Mayer bond orders larger than 0.1
B(  0-C ,  1-C ) :   0.8685 B(  0-C ,  2-Cl) :   0.9521 B(  0-C ,  4-H ) :   0.8744 
B(  0-C ,  6-C ) :   0.8947 B(  1-C ,  3-H ) :   0.8940 B(  1-C ,  5-H ) :   0.8846 
B(  1-C , 10-N ) :   0.9283 B(  6-C ,  7-H ) :   0.8971 B(  6-C ,  8-H ) :   0.8955 
B(  6-C ,  9-H ) :   0.8902 B( 10-N , 11-H ) :   0.8265 B( 10-N , 12-H ) :   0.8139 



----------------------------------
MP2 DERIVATIVE INTEGRAL GENERATION
----------------------------------


Input Wavefunction Amplitudes       ... run.mp2tsaa.tmp.proc0
Input Correlated Electron Density   ... run.pmp2re
Input Energy Weighted Density       ... run.wmp2.tmp
Input SCF Electron Density          ... run.scfp.tmp

One-Electron Terms    ...
                        ... One-Electron Terms done
Prescreening matrices              ... done

Batch handling in the gradient evaluation:
Memory available                      ... 5000.0 MB
Memory per occupied orbital in Q2     ...    2.8 MB
Memory per occupied orbital in Q3     ...    0.0 MB
Total memory requirement per |i>      ...    2.9 MB
Max. Number of orbitals possible      ...   1746
Number of orbitals treated per batch  ...     25
Number of batches to be done          ...      1
Batch   0: i=    0 ...    24

---------------------------------------
MP2 TOTAL ENERGY:     -633.101606821 Eh
---------------------------------------

-----------------------------------
NORM OF THE MP2 GRADIENT:  0.019934
-----------------------------------

-------------------------   --------------------
FINAL SINGLE POINT ENERGY      -633.101606820624
-------------------------   --------------------

------------------------------------------------------------------------------
                         ORCA GEOMETRY RELAXATION STEP
------------------------------------------------------------------------------

Reading the OPT-File                    .... done
Getting information on internals        .... done
Copying old internal coords+grads       .... done
Making the new internal coordinates     .... (new redundants).... done
Validating the new internal coordinates .... (new redundants).... done
Calculating the B-matrix                .... done
Calculating the G,G- and P matrices     .... done
Transforming gradient to internals      .... done
Projecting the internal gradient        .... done
Number of atoms                         ....  13
Number of internal coordinates          ....  57
Current Energy                          ....  -633.101606821 Eh
Current gradient norm                   ....     0.019933758 Eh/bohr
Maximum allowed component of the step   ....  0.300
Current trust radius                    ....  0.300
Evaluating the initial hessian          ....  (Almloef) done
Projecting the Hessian                  .... done
Forming the augmented Hessian           .... done
Diagonalizing the augmented Hessian     .... done
Last element of RFO vector              ....  0.978881219
Lowest eigenvalues of augmented Hessian:
 -0.002044529  0.011985027  0.012680155  0.016825832  0.078313755
Length of the computed step             ....  0.208840292
The final length of the internal step   ....  0.208840292
Converting the step to cartesian space:
 Initial RMS(Int)=    0.0276615725
Transforming coordinates:
 Iter   0:  RMS(Cart)=    0.0594538979 RMS(Int)=    0.0276653642
 Iter   1:  RMS(Cart)=    0.0016275746 RMS(Int)=    0.0011648969
 Iter   2:  RMS(Cart)=    0.0000952530 RMS(Int)=    0.0000559880
 Iter   3:  RMS(Cart)=    0.0000065205 RMS(Int)=    0.0000059120
 Iter   4:  RMS(Cart)=    0.0000004805 RMS(Int)=    0.0000003217
 Iter   5:  RMS(Cart)=    0.0000000364 RMS(Int)=    0.0000000351
done
Storing new coordinates                 .... done

                                .--------------------.
          ----------------------|Geometry convergence|-------------------------
          Item                value                   Tolerance       Converged
          ---------------------------------------------------------------------
          RMS gradient        0.0026583921            0.0001000000      NO
          MAX gradient        0.0117488342            0.0003000000      NO
          RMS step            0.0276615725            0.0020000000      NO
          MAX step            0.0733413874            0.0040000000      NO
          ........................................................
          Max(Bonds)      0.0156      Max(Angles)    2.23
          Max(Dihed)        4.20      Max(Improp)    0.00
          ---------------------------------------------------------------------

The optimization has not yet converged - more geometry cycles are needed


    ---------------------------------------------------------------------------
                         Redundant Internal Coordinates
                            (Angstroem and degrees)

        Definition                    Value    dE/dq     Step     New-Value
    ----------------------------------------------------------------------------
     1. B(C   1,C   0)                1.5234 -0.002538  0.0035    1.5269   
     2. B(Cl  2,C   0)                1.8232  0.008473 -0.0156    1.8076   
     3. B(H   3,C   1)                1.0922 -0.002422  0.0036    1.0958   
     4. B(H   4,C   0)                1.0883 -0.003407  0.0049    1.0933   
     5. B(H   5,C   1)                1.0977  0.002818 -0.0042    1.0935   
     6. B(C   6,C   0)                1.5118 -0.002676  0.0035    1.5154   
     7. B(H   7,C   6)                1.0918  0.000873 -0.0013    1.0905   
     8. B(H   8,C   6)                1.0942  0.001814 -0.0027    1.0915   
     9. B(H   9,C   6)                1.0928 -0.000888  0.0013    1.0941   
    10. B(N  10,C   1)                1.4544 -0.005040  0.0060    1.4604   
    11. B(H  11,N  10)                1.0178  0.003519 -0.0044    1.0134   
    12. B(H  12,N  10)                1.0140  0.000001 -0.0000    1.0140   
    13. A(Cl  2,C   0,H   4)          106.06  0.001588   -0.84    105.21   
    14. A(C   1,C   0,H   4)          108.57 -0.001050    0.38    108.95   
    15. A(C   1,C   0,Cl  2)          108.90  0.000698   -0.21    108.69   
    16. A(H   4,C   0,C   6)          110.62 -0.000093    0.19    110.82   
    17. A(C   1,C   0,C   6)          113.11 -0.000006    0.24    113.35   
    18. A(Cl  2,C   0,C   6)          109.33 -0.001013    0.16    109.49   
    19. A(H   3,C   1,H   5)          108.74  0.001435   -0.80    107.94   
    20. A(C   0,C   1,H   5)          108.77 -0.000251   -0.22    108.56   
    21. A(H   5,C   1,N  10)          109.93  0.002027   -0.74    109.19   
    22. A(H   3,C   1,N  10)          106.97 -0.001021    0.71    107.69   
    23. A(C   0,C   1,N  10)          115.96 -0.001442    0.42    116.37   
    24. A(C   0,C   1,H   3)          106.20 -0.000670    0.61    106.81   
    25. A(H   8,C   6,H   9)          109.66  0.002333   -0.49    109.18   
    26. A(H   7,C   6,H   9)          108.49  0.001563   -0.07    108.42   
    27. A(C   0,C   6,H   9)          107.54 -0.004954    0.95    108.50   
    28. A(H   7,C   6,H   8)          108.61 -0.000022   -0.14    108.47   
    29. A(C   0,C   6,H   8)          111.06  0.000852   -0.23    110.83   
    30. A(C   0,C   6,H   7)          111.42  0.000290   -0.02    111.40   
    31. A(H  11,N  10,H  12)          107.75  0.004011   -0.14    107.61   
    32. A(C   1,N  10,H  12)          108.87 -0.001895    0.55    109.42   
    33. A(C   1,N  10,H  11)          105.74 -0.011749    2.23    107.97   
    34. D(N  10,C   1,C   0,Cl  2)     71.00  0.002903   -4.20     66.79   
    35. D(H   3,C   1,C   0,H   4)     74.60 -0.001412   -1.71     72.89   
    36. D(H   5,C   1,C   0,Cl  2)    -53.47  0.001472   -3.34    -56.81   
    37. D(N  10,C   1,C   0,H   4)    -44.05  0.001216   -3.30    -47.35   
    38. D(H   3,C   1,C   0,Cl  2)   -170.35  0.000275   -2.62   -172.97   
    39. D(H   3,C   1,C   0,C   6)    -48.58 -0.000523   -2.41    -50.99   
    40. D(H   5,C   1,C   0,H   4)   -168.52 -0.000215   -2.44   -170.95   
    41. D(N  10,C   1,C   0,C   6)   -167.24  0.002105   -3.99   -171.23   
    42. D(H   5,C   1,C   0,C   6)     68.30  0.000674   -3.13     65.17   
    43. D(H   8,C   6,C   0,Cl  2)     66.88 -0.000030   -0.45     66.43   
    44. D(H   8,C   6,C   0,C   1)    -54.64 -0.000194   -0.46    -55.10   
    45. D(H   7,C   6,C   0,H   4)     62.09  0.000482   -0.92     61.18   
    46. D(H   7,C   6,C   0,Cl  2)    -54.34 -0.000792   -0.10    -54.44   
    47. D(H   8,C   6,C   0,H   4)   -176.68  0.001244   -1.27   -177.95   
    48. D(H   7,C   6,C   0,C   1)   -175.87 -0.000955   -0.10   -175.97   
    49. D(H   9,C   6,C   0,H   4)    -56.69  0.001488   -1.40    -58.09   
    50. D(H   9,C   6,C   0,Cl  2)   -173.12  0.000214   -0.59   -173.71   
    51. D(H   9,C   6,C   0,C   1)     65.35  0.000051   -0.59     64.76   
    52. D(H  12,N  10,C   1,H   5)     75.75  0.001233   -2.80     72.96   
    53. D(H  12,N  10,C   1,H   3)   -166.34  0.003449   -3.74   -170.08   
    54. D(H  12,N  10,C   1,C   0)    -48.11  0.000992   -2.21    -50.32   
    55. D(H  11,N  10,C   1,H   5)   -168.71 -0.001053   -1.55   -170.26   
    56. D(H  11,N  10,C   1,H   3)    -50.80  0.001162   -2.50    -53.30   
    57. D(H  11,N  10,C   1,C   0)     67.43 -0.001295   -0.97     66.46   
    ----------------------------------------------------------------------------

         *************************************************************
         *                GEOMETRY OPTIMIZATION CYCLE   2            *
         *************************************************************
---------------------------------
CARTESIAN COORDINATES (ANGSTROEM)
---------------------------------
  C     -0.163113   -0.125358   -0.248915
  C     -0.124050   -0.213066    1.274958
  Cl     1.499870    0.249216   -0.850239
  H     -1.110653   -0.564397    1.597301
  H     -0.773550    0.733780   -0.539543
  H      0.612772   -0.968614    1.561288
  C     -0.666621   -1.392153   -0.910731
  H     -0.614975   -1.320779   -1.997652
  H     -0.079876   -2.255873   -0.592705
  H     -1.711605   -1.542100   -0.623445
  N      0.159488    1.028924    1.989054
  H     -0.618836    1.660369    1.838901
  H      0.986580    1.463038    1.594598

----------------------------
CARTESIAN COORDINATES (A.U.)
----------------------------
  NO LB      ZA    FRAG     MASS         X           Y           Z
   0 C     6.0000    0    12.011   -0.308239   -0.236892   -0.470381
   1 C     6.0000    0    12.011   -0.234421   -0.402636    2.409321
   2 Cl   17.0000    0    35.453    2.834344    0.470950   -1.606719
   3 H     1.0000    0     1.008   -2.098830   -1.066555    3.018461
   4 H     1.0000    0     1.008   -1.461798    1.386643   -1.019588
   5 H     1.0000    0     1.008    1.157971   -1.830415    2.950407
   6 C     6.0000    0    12.011   -1.259731   -2.630788   -1.721031
   7 H     1.0000    0     1.008   -1.162135   -2.495910   -3.775016
   8 H     1.0000    0     1.008   -0.150943   -4.262981   -1.120051
   9 H     1.0000    0     1.008   -3.234465   -2.914146   -1.178140
  10 N     7.0000    0    14.007    0.301389    1.944384    3.758768
  11 H     1.0000    0     1.008   -1.169430    3.137642    3.475019
  12 H     1.0000    0     1.008    1.864365    2.764742    3.013353

--------------------------------
INTERNAL COORDINATES (ANGSTROEM)
--------------------------------
 C      0   0   0     0.000000000000     0.00000000     0.00000000
 C      1   0   0     1.526894573981     0.00000000     0.00000000
 Cl     1   2   0     1.807597802410   108.68550399     0.00000000
 H      2   1   3     1.095775228528   106.79628347   187.03111567
 H      1   2   3     1.093259465021   108.94956532   245.85759033
 H      2   1   3     1.093501101982   108.55751671   303.18889876
 C      1   2   3     1.515351392037   113.35063130   121.97990124
 H      7   1   2     1.090486355338   111.39901590   184.02963188
 H      7   1   2     1.091522828663   110.83294830   304.90066804
 H      7   1   2     1.094078956305   108.49690073    64.76120756
 N      2   1   3     1.460433491372   116.36646128    66.79225278
 H     11   2   1     1.013438495230   107.95830678    66.47245561
 H     11   2   1     1.013968041073   109.40507161   309.67569822

---------------------------
INTERNAL COORDINATES (A.U.)
---------------------------
 C      0   0   0     0.000000000000     0.00000000     0.00000000
 C      1   0   0     2.885412580195     0.00000000     0.00000000
 Cl     1   2   0     3.415864806832   108.68550399     0.00000000
 H      2   1   3     2.070715086254   106.79628347   187.03111567
 H      1   2   3     2.065960982207   108.94956532   245.85759033
 H      2   1   3     2.066417609888   108.55751671   303.18889876
 C      1   2   3     2.863599127607   113.35063130   121.97990124
 H      7   1   2     2.060720564367   111.39901590   184.02963188
 H      7   1   2     2.062679215097   110.83294830   304.90066804
 H      7   1   2     2.067509596302   108.49690073    64.76120756
 N      2   1   3     2.759819335499   116.36646128    66.79225278
 H     11   2   1     1.915121209557   107.95830678    66.47245561
 H     11   2   1     1.916121906176   109.40507161   309.67569822


Diagonalization of the overlap matrix:
Smallest eigenvalue                        ... 2.537e-03
Time for diagonalization                   ...    0.003 sec
Threshold for overlap eigenvalues          ... 1.000e-08
Number of eigenvalues below threshold      ... 0
Time for construction of square roots      ...    0.001 sec
Total time needed                          ...    0.004 sec

--------------
SCF ITERATIONS
--------------
ITER       Energy         Delta-E        Max-DP      RMS-DP      [F,P]     Damp
               ***  Starting incremental Fock matrix formation  ***
  0   -632.2450969421   0.000000000000 0.00216706  0.00010050  0.0253741 0.7000
                      *** Initiating the SOSCF procedure ***
                      *** Re-Reading the Fockian *** 
                      *** Removing any level shift *** 
ITER      Energy       Delta-E        Grad      Rot      Max-DP    RMS-DP
  1   -632.24566576  -0.0005688191  0.001185  0.001185  0.005756  0.000308
               *** Restarting incremental Fock matrix formation ***
  2   -632.24748212  -0.0018163628  0.001473  0.002101  0.003611  0.000139
  3   -632.24768467  -0.0002025482  0.000591  0.001548  0.003187  0.000098
  4   -632.24771702  -0.0000323519  0.000131  0.000243  0.000495  0.000013
  5   -632.24771759  -0.0000005640  0.000049  0.000129  0.000250  0.000007
  6   -632.24771772  -0.0000001279  0.000013  0.000040  0.000072  0.000002
  7   -632.24771772  -0.0000000083  0.000003  0.000008  0.000008  0.000000
  8   -632.24771773  -0.0000000008  0.000001  0.000001  0.000003  0.000000
  9   -632.24771773  -0.0000000001  0.000000  0.000001  0.000001  0.000000
 10   -632.24771773  -0.0000000000  0.000000  0.000000  0.000000  0.000000
 11   -632.24771773  -0.0000000000  0.000000  0.000000  0.000000  0.000000
 12   -632.24771773  -0.0000000000  0.000000  0.000000  0.000000  0.000000
 13   -632.24771773   0.0000000000  0.000000  0.000000  0.000000  0.000000
 14   -632.24771773   0.0000000000  0.000000  0.000000  0.000000  0.000000
                    ***Orbital Rotation convergence achieved***
 15   -632.24771773   0.0000000000  0.000000  0.000000  0.000000  0.000000
                           ***RMSP convergence achieved***
                           ***MAXP convergence achieved***
                       ***Gradient convergence achieved***
 16   -632.24771773  -0.0000000000  0.000000  0.000000  0.000000  0.000000
                          ***Energy convergence achieved***
              ***Rediagonalizing the Fockian in SOSCF/NRSCF***

               *****************************************************
               *                     SUCCESS                       *
               *           SCF CONVERGED AFTER  17 CYCLES          *
               *****************************************************

Total Energy       :         -632.24771773 Eh          -17204.33505 eV
  Last Energy change         ...    0.0000e+00  Tolerance :   1.0000e-14
  Last MAX-Density change    ...    0.0000e+00  Tolerance :   1.0000e-14
             **** THE GBW FILE WAS UPDATED (run.gbw) ****
             **** DENSITY FILE WAS UPDATED (run.scfp.tmp) ****
             **** ENERGY FILE WAS UPDATED (run.en.tmp) ****
Total SCF time: 0 days 0 hours 0 min 46 sec 

------------------------------------------------------------------------------
                                ORCA  MP2 
------------------------------------------------------------------------------

MP2 will be done in the AO integral direct mode
The Q1-step will be done using symmetric double matrices
Dimension of the basis                    ...  122
Memory devoted for MP2                    ... 5000 MB   
Memory needed for all in one shot         ...  176 MB
Number of MOs that can be treated together...  714      
MP2 density construction                  ... relaxed
The MP2 gradient is requested => amplitudes will be stored on disk
Total number of MOs              ...   25
Number of MOs treated per batch  ...   25 
Number of batches necessary      ...    1 
OPERATORS   0/  0 PASS   0
-----------------------------------------------
 MP2 CORRELATION ENERGY   :     -0.855310647 Eh
-----------------------------------------------


---------------------
MP2 DENSITY FORMATION
---------------------

Completing the external part of the density      ... done
Storing the unrelaxed density                    ... done

Calculating G(D)                                 ... done
Completing the Lagrangian                        ... done
Solving the Z-vector equations                   ... 

------------------------------------------------------------------------------
                           ORCA CP-SCF CALCULATION
------------------------------------------------------------------------------

Input orbitals are from        ... run.gbw
Input Perturbation             ... run.pin.tmp
Wavefunction output            ... run.pout.tmp
Perturbation mode              ... Real perturbation
Solver                         ... POPLE
Max. number of iterations      ... 128
Convergence tolerance          ... 1.000e-11
Integral handling              ... Direct
Number of perturbations        ... 1
Number of operators            ... 1
Orbital ranges used for CP-SCF:
 Operator 0:  Orbitals   0... 24  to  25...121
Variables per vector in CP-SCF ... 2425
Number of vectors sought       ... 1
     CP-SCF ITERATION   0: 
     CP-SCF ITERATION   1:      0.000300570513
     CP-SCF ITERATION   2:      0.000030571272
     CP-SCF ITERATION   3:      0.000002750710
     CP-SCF ITERATION   4:      0.000000285753
     CP-SCF ITERATION   5:      0.000000024741
     CP-SCF ITERATION   6:      0.000000002041
     CP-SCF ITERATION   7:      0.000000000100
     CP-SCF ITERATION   8:      0.000000000007
                                                 ... done
Finalizing the relaxed density                   ... done
Transforming P to the AO basis                   ... done
Storing the relaxed density                      ... done

------------------------------------
ENERGY WEIGHTED DENSITY FINALIZATION
------------------------------------

Gathering the parts of the W-matrix              ...                                                      done
Forming the Z-density                            ... done
Transforming Z to the AO basis                   ... done
Calculating G(Z)                                 ... done
Finalizing the W-matrix                          ...                                                      done
Transforming W to the AO basis and storing       ... done

----------------------------------
MP2 DERIVATIVE INTEGRAL GENERATION
----------------------------------


Input Wavefunction Amplitudes       ... run.mp2tsaa.tmp.proc0
Input Correlated Electron Density   ... run.pmp2re
Input Energy Weighted Density       ... run.wmp2.tmp
Input SCF Electron Density          ... run.scfp.tmp

One-Electron Terms    ...
                        ... One-Electron Terms done
Prescreening matrices              ... done

Batch handling in the gradient evaluation:
Memory available                      ... 5000.0 MB
Memory per occupied orbital in Q2     ...    2.8 MB
Memory per occupied orbital in Q3     ...    0.0 MB
Total memory requirement per |i>      ...    2.9 MB
Max. Number of orbitals possible      ...   1746
Number of orbitals treated per batch  ...     25
Number of batches to be done          ...      1
Batch   0: i=    0 ...    24

---------------------------------------
MP2 TOTAL ENERGY:     -633.103028372 Eh
---------------------------------------

-----------------------------------
NORM OF THE MP2 GRADIENT:  0.009434
-----------------------------------

-------------------------   --------------------
FINAL SINGLE POINT ENERGY      -633.103028372173
-------------------------   --------------------

------------------------------------------------------------------------------
                         ORCA GEOMETRY RELAXATION STEP
------------------------------------------------------------------------------

Reading the OPT-File                    .... done
Getting information on internals        .... done
Copying old internal coords+grads       .... done
Making the new internal coordinates     .... (new redundants).... done
[...]
                    * MULLIKEN POPULATION ANALYSIS *
                    ********************************

-----------------------
MULLIKEN ATOMIC CHARGES
-----------------------
   0 C :   -0.297081
   1 C :   -0.202074
   2 Cl:   -0.144254
   3 H :    0.215518
   4 H :    0.239434
   5 H :    0.227023
   6 C :   -0.593317
   7 H :    0.240525
   8 H :    0.229425
   9 H :    0.216807
  10 N :   -0.801930
  11 H :    0.321177
  12 H :    0.348748
Sum of atomic charges:   -0.0000000

--------------------------------
MULLIKEN REDUCED ORBITAL CHARGES
--------------------------------
  0 C s       :     3.329555  s :     3.329555
      pz      :     0.965093  p :     2.847673
      px      :     0.813514
      py      :     1.069066
      dz2     :     0.028441  d :     0.119853
      dxz     :     0.020808
      dyz     :     0.019728
      dx2y2   :     0.022111
      dxy     :     0.028766
  1 C s       :     3.229920  s :     3.229920
      pz      :     0.818299  p :     2.849846
      px      :     1.132381
      py      :     0.899166
      dz2     :     0.035924  d :     0.122309
      dxz     :     0.013924
      dyz     :     0.025260
      dx2y2   :     0.020666
      dxy     :     0.026534
  2 Cls       :     5.958604  s :     5.958604
      pz      :     3.870625  p :    11.108592
      px      :     3.335305
      py      :     3.902662
      dz2     :     0.013747  d :     0.077058
      dxz     :     0.017235
      dyz     :     0.011517
      dx2y2   :     0.019198
      dxy     :     0.015361
  3 H s       :     0.784482  s :     0.784482
  4 H s       :     0.760566  s :     0.760566
  5 H s       :     0.772977  s :     0.772977
  6 C s       :     3.345881  s :     3.345881
      pz      :     1.104323  p :     3.156980
      px      :     1.091274
      py      :     0.961383
      dz2     :     0.027375  d :     0.090456
      dxz     :     0.010731
      dyz     :     0.013360
      dx2y2   :     0.018319
      dxy     :     0.020671
  7 H s       :     0.759475  s :     0.759475
  8 H s       :     0.770575  s :     0.770575
  9 H s       :     0.783193  s :     0.783193
 10 N s       :     3.676731  s :     3.676731
      pz      :     1.770930  p :     4.069441
      px      :     1.179936
      py      :     1.118574
      dz2     :     0.008047  d :     0.055758
      dxz     :     0.010008
      dyz     :     0.012447
      dx2y2   :     0.009682
      dxy     :     0.015575
 11 H s       :     0.678823  s :     0.678823
 12 H s       :     0.651252  s :     0.651252


                     *******************************
                     * LOEWDIN POPULATION ANALYSIS *
                     *******************************

----------------------
LOEWDIN ATOMIC CHARGES
----------------------
   0 C :   -0.226288
   1 C :   -0.181859
   2 Cl:    0.024158
   3 H :    0.104209
   4 H :    0.104973
   5 H :    0.106553
   6 C :   -0.292366
   7 H :    0.115192
   8 H :    0.113592
   9 H :    0.110377
  10 N :   -0.366213
  11 H :    0.191456
  12 H :    0.196217

-------------------------------
LOEWDIN REDUCED ORBITAL CHARGES
-------------------------------
  0 C s       :     2.891327  s :     2.891327
      pz      :     1.087395  p :     3.119704
      px      :     0.931465
      py      :     1.100844
      dz2     :     0.054247  d :     0.215257
      dxz     :     0.037805
      dyz     :     0.034564
      dx2y2   :     0.040773
      dxy     :     0.047867
  1 C s       :     2.851591  s :     2.851591
      pz      :     1.013469  p :     3.115295
      px      :     1.093108
      py      :     1.008718
      dz2     :     0.069992  d :     0.214973
      dxz     :     0.022207
      dyz     :     0.049667
      dx2y2   :     0.033264
      dxy     :     0.039842
  2 Cls       :     5.728634  s :     5.728634
      pz      :     3.856344  p :    11.165766
      px      :     3.414514
      py      :     3.894908
      dz2     :     0.014434  d :     0.081442
      dxz     :     0.018444
      dyz     :     0.011818
      dx2y2   :     0.020467
      dxy     :     0.016279
  3 H s       :     0.895791  s :     0.895791
  4 H s       :     0.895027  s :     0.895027
  5 H s       :     0.893447  s :     0.893447
  6 C s       :     2.893040  s :     2.893040
      pz      :     1.097697  p :     3.266005
      px      :     1.100930
      py      :     1.067378
      dz2     :     0.038112  d :     0.133321
      dxz     :     0.013309
      dyz     :     0.022536
      dx2y2   :     0.028270
      dxy     :     0.031094
  7 H s       :     0.884808  s :     0.884808
  8 H s       :     0.886408  s :     0.886408
  9 H s       :     0.889623  s :     0.889623
 10 N s       :     3.197352  s :     3.197352
      pz      :     1.728028  p :     4.096562
      px      :     1.187704
      py      :     1.180830
      dz2     :     0.009370  d :     0.072299
      dxz     :     0.010577
      dyz     :     0.017079
      dx2y2   :     0.014008
      dxy     :     0.021265
 11 H s       :     0.808544  s :     0.808544
 12 H s       :     0.803783  s :     0.803783


                      *****************************
                      * MAYER POPULATION ANALYSIS *
                      *****************************

  NA   - Mulliken gross atomic population
  ZA   - Total nuclear charge
  QA   - Mulliken gross atomic charge
  VA   - Mayer's total valence
  BVA  - Mayer's bonded valence
  FA   - Mayer's free valence

  ATOM       NA         ZA         QA         VA         BVA        FA
  0 C      6.2971     6.0000    -0.2971     3.7598     3.4327     0.3271
  1 C      6.2021     6.0000    -0.2021     3.7197     3.4371     0.2825
  2 Cl    17.1443    17.0000    -0.1443     1.2520     0.8421     0.4098
  3 H      0.7845     1.0000     0.2155     0.9133     0.8742     0.0391
  4 H      0.7606     1.0000     0.2394     0.8853     0.8451     0.0402
  5 H      0.7730     1.0000     0.2270     0.9078     0.8696     0.0382
  6 C      6.5933     6.0000    -0.5933     3.7550     3.4781     0.2769
  7 H      0.7595     1.0000     0.2405     0.9011     0.8643     0.0368
  8 H      0.7706     1.0000     0.2294     0.9078     0.8704     0.0374
  9 H      0.7832     1.0000     0.2168     0.9126     0.8743     0.0383
 10 N      7.8019     7.0000    -0.8019     2.8262     2.4936     0.3327
 11 H      0.6788     1.0000     0.3212     0.8623     0.8231     0.0392
 12 H      0.6513     1.0000     0.3487     0.8428     0.8045     0.0384

  Mayer bond orders larger than 0.1
B(  0-C ,  1-C ) :   0.8575 B(  0-C ,  2-Cl) :   0.9170 B(  0-C ,  4-H ) :   0.8818 
B(  0-C ,  6-C ) :   0.8755 B(  1-C ,  3-H ) :   0.9034 B(  1-C ,  5-H ) :   0.9004 
B(  1-C , 10-N ) :   0.8839 B(  6-C ,  7-H ) :   0.9064 B(  6-C ,  8-H ) :   0.9009 
B(  6-C ,  9-H ) :   0.8997 B( 10-N , 11-H ) :   0.8254 B( 10-N , 12-H ) :   0.8120 



                *******************************************
                * RELAXED MP2 DENSITY POPULATION ANALYSIS *
                *******************************************

------------------------------------------------------------------------------
                           ORCA POPULATION ANALYSIS
------------------------------------------------------------------------------
Input electron density              ... run.pmp2re
BaseName (.gbw .S,...)              ... run

                    ********************************
                    * MULLIKEN POPULATION ANALYSIS *
                    ********************************

-----------------------
MULLIKEN ATOMIC CHARGES
-----------------------
   0 C :   -0.328444
   1 C :   -0.267103
   2 Cl:   -0.097190
   3 H :    0.225283
   4 H :    0.242477
   5 H :    0.235484
   6 C :   -0.633471
   7 H :    0.248291
   8 H :    0.239011
   9 H :    0.227488
  10 N :   -0.750500
  11 H :    0.318372
  12 H :    0.340304
Sum of atomic charges:   -0.0000000

--------------------------------
MULLIKEN REDUCED ORBITAL CHARGES
--------------------------------
  0 C s       :     3.315131  s :     3.315131
      pz      :     0.977891  p :     2.903012
      px      :     0.842997
      py      :     1.082125
      dz2     :     0.025147  d :     0.110300
      dxz     :     0.020169
      dyz     :     0.018761
      dx2y2   :     0.019959
      dxy     :     0.026264
  1 C s       :     3.232920  s :     3.232920
      pz      :     0.846753  p :     2.924039
      px      :     1.154773
      py      :     0.922514
      dz2     :     0.031644  d :     0.110144
      dxz     :     0.013581
      dyz     :     0.023621
      dx2y2   :     0.017957
      dxy     :     0.023341
  2 Cls       :     5.957561  s :     5.957561
      pz      :     3.857467  p :    11.065220
      px      :     3.314789
      py      :     3.892963
      dz2     :     0.013499  d :     0.074410
      dxz     :     0.016546
      dyz     :     0.011544
      dx2y2   :     0.017606
      dxy     :     0.015215
  3 H s       :     0.774717  s :     0.774717
  4 H s       :     0.757523  s :     0.757523
  5 H s       :     0.764516  s :     0.764516
  6 C s       :     3.336928  s :     3.336928
      pz      :     1.120764  p :     3.217838
      px      :     1.114081
      py      :     0.982993
      dz2     :     0.023506  d :     0.078705
      dxz     :     0.009549
      dyz     :     0.011801
      dx2y2   :     0.015830
      dxy     :     0.018019
  7 H s       :     0.751709  s :     0.751709
  8 H s       :     0.760989  s :     0.760989
  9 H s       :     0.772512  s :     0.772512
 10 N s       :     3.649288  s :     3.649288
      pz      :     1.756916  p :     4.049210
      px      :     1.176726
      py      :     1.115569
      dz2     :     0.008144  d :     0.052003
      dxz     :     0.009535
      dyz     :     0.011532
      dx2y2   :     0.008689
      dxy     :     0.014102
 11 H s       :     0.681628  s :     0.681628
 12 H s       :     0.659696  s :     0.659696


                     *******************************
                     * LOEWDIN POPULATION ANALYSIS *
                     *******************************

----------------------
LOEWDIN ATOMIC CHARGES
----------------------
   0 C :   -0.252815
   1 C :   -0.213288
   2 Cl:    0.052100
   3 H :    0.114363
   4 H :    0.110196
   5 H :    0.115124
   6 C :   -0.326207
   7 H :    0.123917
   8 H :    0.122657
   9 H :    0.120962
  10 N :   -0.360824
  11 H :    0.195716
  12 H :    0.198101

-------------------------------
LOEWDIN REDUCED ORBITAL CHARGES
-------------------------------
  0 C s       :     2.895940  s :     2.895940
      pz      :     1.089474  p :     3.148548
      px      :     0.954076
      py      :     1.104998
      dz2     :     0.051999  d :     0.208327
      dxz     :     0.037321
      dyz     :     0.034163
      dx2y2   :     0.038838
      dxy     :     0.046005
  1 C s       :     2.856814  s :     2.856814
      pz      :     1.025004  p :     3.152005
      px      :     1.107405
      py      :     1.019596
      dz2     :     0.066731  d :     0.204470
      dxz     :     0.022087
      dyz     :     0.048233
      dx2y2   :     0.030625
      dxy     :     0.036793
  2 Cls       :     5.734756  s :     5.734756
      pz      :     3.848397  p :    11.133819
      px      :     3.395417
      py      :     3.890005
      dz2     :     0.014218  d :     0.079325
      dxz     :     0.017924
      dyz     :     0.011863
      dx2y2   :     0.019107
      dxy     :     0.016213
  3 H s       :     0.885637  s :     0.885637
  4 H s       :     0.889804  s :     0.889804
  5 H s       :     0.884876  s :     0.884876
  6 C s       :     2.896642  s :     2.896642
      pz      :     1.110596  p :     3.307560
      px      :     1.116662
      py      :     1.080301
      dz2     :     0.034446  d :     0.122005
      dxz     :     0.012241
      dyz     :     0.021078
      dx2y2   :     0.025731
      dxy     :     0.028508
  7 H s       :     0.876083  s :     0.876083
  8 H s       :     0.877343  s :     0.877343
  9 H s       :     0.879038  s :     0.879038
 10 N s       :     3.195740  s :     3.195740
      pz      :     1.717810  p :     4.095896
      px      :     1.194034
      py      :     1.184052
      dz2     :     0.009457  d :     0.069188
      dxz     :     0.010249
      dyz     :     0.016303
      dx2y2   :     0.013159
      dxy     :     0.020018
 11 H s       :     0.804284  s :     0.804284
 12 H s       :     0.801899  s :     0.801899


                      *****************************
                      * MAYER POPULATION ANALYSIS *
                      *****************************

  NA   - Mulliken gross atomic population
  ZA   - Total nuclear charge
  QA   - Mulliken gross atomic charge
  VA   - Mayer's total valence
  BVA  - Mayer's bonded valence
  FA   - Mayer's free valence

  ATOM       NA         ZA         QA         VA         BVA        FA
  0 C      6.3284     6.0000    -0.3284     3.8314     3.5102     0.3212
  1 C      6.2671     6.0000    -0.2671     3.7765     3.4973     0.2792
  2 Cl    17.0972    17.0000    -0.0972     1.3114     0.9067     0.4047
  3 H      0.7747     1.0000     0.2253     0.9092     0.8709     0.0384
  4 H      0.7575     1.0000     0.2425     0.8868     0.8475     0.0393
  5 H      0.7645     1.0000     0.2355     0.9051     0.8677     0.0374
  6 C      6.6335     6.0000    -0.6335     3.7643     3.4907     0.2736
  7 H      0.7517     1.0000     0.2483     0.8975     0.8614     0.0362
  8 H      0.7610     1.0000     0.2390     0.9047     0.8681     0.0366
  9 H      0.7725     1.0000     0.2275     0.9086     0.8711     0.0375
 10 N      7.7505     7.0000    -0.7505     2.9001     2.5724     0.3277
 11 H      0.6816     1.0000     0.3184     0.8625     0.8235     0.0389
 12 H      0.6597     1.0000     0.3403     0.8490     0.8109     0.0381

  Mayer bond orders larger than 0.1
B(  0-C ,  1-C ) :   0.8725 B(  0-C ,  2-Cl) :   0.9483 B(  0-C ,  4-H ) :   0.8749 
B(  0-C ,  6-C ) :   0.8937 B(  1-C ,  3-H ) :   0.8911 B(  1-C ,  5-H ) :   0.8901 
B(  1-C , 10-N ) :   0.9365 B(  6-C ,  7-H ) :   0.8982 B(  6-C ,  8-H ) :   0.8943 
B(  6-C ,  9-H ) :   0.8913 B( 10-N , 11-H ) :   0.8250 B( 10-N , 12-H ) :   0.8135 



----------------------------------
MP2 DERIVATIVE INTEGRAL GENERATION
----------------------------------


Input Wavefunction Amplitudes       ... run.mp2tsaa.tmp.proc0
Input Correlated Electron Density   ... run.pmp2re
Input Energy Weighted Density       ... run.wmp2.tmp
Input SCF Electron Density          ... run.scfp.tmp

One-Electron Terms    ...
                        ... One-Electron Terms done
Prescreening matrices              ... done

Batch handling in the gradient evaluation:
Memory available                      ... 5000.0 MB
Memory per occupied orbital in Q2     ...    2.8 MB
Memory per occupied orbital in Q3     ...    0.0 MB
Total memory requirement per |i>      ...    2.9 MB
Max. Number of orbitals possible      ...   1746
Number of orbitals treated per batch  ...     25
Number of batches to be done          ...      1
Batch   0: i=    0 ...    24

---------------------------------------
MP2 TOTAL ENERGY:     -633.103758272 Eh
---------------------------------------

-----------------------------------
NORM OF THE MP2 GRADIENT:  0.000278
-----------------------------------

-------------------------   --------------------
FINAL SINGLE POINT ENERGY      -633.103758271630
-------------------------   --------------------

                                *** OPTIMIZATION RUN DONE ***

                            ***************************************
                            *     ORCA property calculations      *
                            ***************************************

                                    ---------------------
                                    Active property flags
                                    ---------------------
   (+) Dipole Moment


------------------------------------------------------------------------------
                       ORCA ELECTRIC PROPERTIES CALCULATION
------------------------------------------------------------------------------

Dipole Moment Calculation                       ... on
Quadrupole Moment Calculation                   ... off
Polarizability Calculation                      ... off
GBWName                                         ... run.gbw
Electron density file                           ... run.scfp.tmp
The origin for moment calculation is the CENTER OF MASS  = ( 0.764053,  0.047052  0.032350)

-------------
DIPOLE MOMENT
-------------
                                X             Y             Z
Electronic contribution:      6.57543       3.15803      -3.94378
Nuclear contribution   :     -7.41279      -3.28613       3.73762
                        -----------------------------------------
Total Dipole Moment    :     -0.83736      -0.12810      -0.20616
                        -----------------------------------------
Magnitude (a.u.)       :      0.87183
Magnitude (Debye)      :      2.21601


                         *** MP2 UNRELAXED DENSITY ***

------------------------------------------------------------------------------
                       ORCA ELECTRIC PROPERTIES CALCULATION
------------------------------------------------------------------------------

Dipole Moment Calculation                       ... on
Quadrupole Moment Calculation                   ... off
Polarizability Calculation                      ... off
GBWName                                         ... run.gbw
Electron density file                           ... run.pmp2ur
The origin for moment calculation is the CENTER OF MASS  = ( 0.764053,  0.047052  0.032350)

-------------
DIPOLE MOMENT
-------------
                                X             Y             Z
Electronic contribution:      6.59407       3.16564      -3.94392
Nuclear contribution   :     -7.41279      -3.28613       3.73762
                        -----------------------------------------
Total Dipole Moment    :     -0.81871      -0.12049      -0.20630
                        -----------------------------------------
Magnitude (a.u.)       :      0.85286
Magnitude (Debye)      :      2.16780


                           *** MP2 RELAXED DENSITY ***

------------------------------------------------------------------------------
                       ORCA ELECTRIC PROPERTIES CALCULATION
------------------------------------------------------------------------------

Dipole Moment Calculation                       ... on
Quadrupole Moment Calculation                   ... off
Polarizability Calculation                      ... off
GBWName                                         ... run.gbw
Electron density file                           ... run.pmp2re
The origin for moment calculation is the CENTER OF MASS  = ( 0.764053,  0.047052  0.032350)

-------------
DIPOLE MOMENT
-------------
                                X             Y             Z
Electronic contribution:      6.68073       3.20695      -3.96039
Nuclear contribution   :     -7.41279      -3.28613       3.73762
                        -----------------------------------------
Total Dipole Moment    :     -0.73205      -0.07918      -0.22277
                        -----------------------------------------
Magnitude (a.u.)       :      0.76928
Magnitude (Debye)      :      1.95537


Timings for individual modules:

Sum of individual times         ...      866.220 sec (=  14.437 min)
GTO integral calculation        ...        2.775 sec (=   0.046 min)   0.3 %
SCF iterations                  ...      363.679 sec (=   6.061 min)  42.0 %
MP2 module                      ...      499.364 sec (=   8.323 min)  57.6 %
Geometry relaxation             ...        0.403 sec (=   0.007 min)   0.0 %
                             ****ORCA TERMINATED NORMALLY****
TOTAL RUN TIME: 0 days 0 hours 14 minutes 26 seconds 814 msec
